MODEL 1
REMARK VINA RESULT:    -7.432      0.000      0.000
REMARK INTER + INTRA:         -10.423
REMARK INTER:                  -9.170
REMARK INTRA:                  -1.254
REMARK UNBOUND:                -1.254
REMARK  Name = CNP0185975_1.pdb
REMARK  5 active torsions:
REMARK  status: ('A' for Active; 'I' for Inactive)
REMARK    1  A    between atoms: C1_1  and  O1_2
REMARK    2  A    between atoms: O1_2  and  C2_3
REMARK    3  A    between atoms: C7_8  and  C8_9
REMARK    4  A    between atoms: N1_16  and  C14_17
REMARK    5  A    between atoms: C14_17  and  C15_18
REMARK                            x       y       z     vdW  Elec       q    Type
REMARK                         _______ _______ _______ _____ _____    ______ ____
ROOT
ATOM      1  C8  UNL     1      22.312  32.953  38.174  0.00  0.00    +0.000 C 
ATOM      2  C9  UNL     1      21.199  31.986  38.474  0.00  0.00    +0.000 A 
ATOM      3  C10 UNL     1      19.898  32.178  38.057  0.00  0.00    +0.000 A 
ATOM      4  C11 UNL     1      19.444  33.368  37.286  0.00  0.00    +0.000 C 
ATOM      5  C12 UNL     1      20.636  33.932  36.486  0.00  0.00    +0.000 C 
ATOM      6  C13 UNL     1      20.225  35.222  35.829  0.00  0.00    +0.000 C 
ATOM      7  O2  UNL     1      19.364  35.193  34.909  0.00  0.00    +0.000 OA
ATOM      8  N1  UNL     1      20.781  36.476  36.257  0.00  0.00    +0.000 N 
ATOM      9  C21 UNL     1      22.162  36.552  36.743  0.00  0.00    +0.000 C 
ATOM     10  C22 UNL     1      22.710  35.210  37.118  0.00  0.00    +0.000 C 
ATOM     11  O3  UNL     1      23.954  35.084  37.276  0.00  0.00    +0.000 OA
ATOM     12  N2  UNL     1      21.829  34.095  37.353  0.00  0.00    +0.000 N 
ATOM     13  C23 UNL     1      19.169  31.139  38.593  0.00  0.00    +0.000 A 
ATOM     14  C24 UNL     1      17.810  30.840  38.540  0.00  0.00    +0.000 A 
ATOM     15  C25 UNL     1      17.369  29.686  39.216  0.00  0.00    +0.000 A 
ATOM     16  C26 UNL     1      18.285  28.875  39.924  0.00  0.00    +0.000 A 
ATOM     17  C27 UNL     1      19.652  29.208  39.964  0.00  0.00    +0.000 A 
ATOM     18  C28 UNL     1      20.063  30.353  39.283  0.00  0.00    +0.000 A 
ATOM     19  N3  UNL     1      21.310  30.859  39.216  0.00  0.00    +0.000 N 
ATOM     20  H24 UNL     1      22.174  30.480  39.664  0.00  0.00    +0.000 HD
ENDROOT
BRANCH   1  26
ATOM     21  C2  UNL     1      24.244  33.125  39.843  0.00  0.00    +0.000 A 
ATOM     22  C3  UNL     1      24.757  33.588  41.070  0.00  0.00    +0.000 A 
ATOM     23  C4  UNL     1      23.961  34.355  41.925  0.00  0.00    +0.000 A 
ATOM     24  C5  UNL     1      22.650  34.665  41.569  0.00  0.00    +0.000 A 
ATOM     25  C6  UNL     1      22.126  34.210  40.358  0.00  0.00    +0.000 A 
ATOM     26  C7  UNL     1      22.911  33.434  39.487  0.00  0.00    +0.000 A 
BRANCH  21  28
ATOM     27  C1  UNL     1      25.326  30.984  39.121  0.00  0.00    +0.000 C 
ATOM     28  O1  UNL     1      25.026  32.365  38.957  0.00  0.00    +0.000 OA
ENDBRANCH  21  28
ENDBRANCH   1  26
BRANCH   8  29
ATOM     29  C14 UNL     1      20.023  37.719  36.066  0.00  0.00    +0.000 C 
BRANCH  29  30
ATOM     30  C15 UNL     1      19.908  38.463  37.376  0.00  0.00    +0.000 A 
ATOM     31  C16 UNL     1      19.607  37.731  38.540  0.00  0.00    +0.000 A 
ATOM     32  C17 UNL     1      19.464  38.375  39.770  0.00  0.00    +0.000 A 
ATOM     33  C18 UNL     1      19.617  39.760  39.855  0.00  0.00    +0.000 A 
ATOM     34  C19 UNL     1      19.918  40.501  38.711  0.00  0.00    +0.000 A 
ATOM     35  C20 UNL     1      20.065  39.866  37.471  0.00  0.00    +0.000 A 
ATOM     36 CL1  UNL     1      20.463  40.867  36.079  0.00  0.00    +0.000 Cl
ENDBRANCH  29  30
ENDBRANCH   8  29
TORSDOF 4
ENDMDL
MODEL 2
REMARK VINA RESULT:    -6.708      5.438     10.878
REMARK INTER + INTRA:          -9.530
REMARK INTER:                  -8.272
REMARK INTRA:                  -1.258
REMARK UNBOUND:                -1.254
REMARK  Name = CNP0185975_1.pdb
REMARK  5 active torsions:
REMARK  status: ('A' for Active; 'I' for Inactive)
REMARK    1  A    between atoms: C1_1  and  O1_2
REMARK    2  A    between atoms: O1_2  and  C2_3
REMARK    3  A    between atoms: C7_8  and  C8_9
REMARK    4  A    between atoms: N1_16  and  C14_17
REMARK    5  A    between atoms: C14_17  and  C15_18
REMARK                            x       y       z     vdW  Elec       q    Type
REMARK                         _______ _______ _______ _____ _____    ______ ____
ROOT
ATOM      1  C8  UNL     1      19.370  40.955  32.045  0.00  0.00    +0.000 C 
ATOM      2  C9  UNL     1      20.639  41.762  31.984  0.00  0.00    +0.000 A 
ATOM      3  C10 UNL     1      21.774  41.442  32.700  0.00  0.00    +0.000 A 
ATOM      4  C11 UNL     1      21.867  40.280  33.626  0.00  0.00    +0.000 C 
ATOM      5  C12 UNL     1      20.871  39.194  33.171  0.00  0.00    +0.000 C 
ATOM      6  C13 UNL     1      20.847  38.086  34.188  0.00  0.00    +0.000 C 
ATOM      7  O2  UNL     1      21.872  37.367  34.335  0.00  0.00    +0.000 OA
ATOM      8  N1  UNL     1      19.687  37.862  35.006  0.00  0.00    +0.000 N 
ATOM      9  C21 UNL     1      18.343  38.118  34.479  0.00  0.00    +0.000 C 
ATOM     10  C22 UNL     1      18.364  38.982  33.256  0.00  0.00    +0.000 C 
ATOM     11  O3  UNL     1      17.329  39.048  32.540  0.00  0.00    +0.000 OA
ATOM     12  N2  UNL     1      19.525  39.773  32.934  0.00  0.00    +0.000 N 
ATOM     13  C23 UNL     1      22.677  42.451  32.451  0.00  0.00    +0.000 A 
ATOM     14  C24 UNL     1      23.966  42.677  32.931  0.00  0.00    +0.000 A 
ATOM     15  C25 UNL     1      24.636  43.832  32.483  0.00  0.00    +0.000 A 
ATOM     16  C26 UNL     1      24.006  44.723  31.584  0.00  0.00    +0.000 A 
ATOM     17  C27 UNL     1      22.701  44.470  31.122  0.00  0.00    +0.000 A 
ATOM     18  C28 UNL     1      22.062  43.317  31.578  0.00  0.00    +0.000 A 
ATOM     19  N3  UNL     1      20.814  42.906  31.281  0.00  0.00    +0.000 N 
ATOM     20  H24 UNL     1      20.117  43.382  30.664  0.00  0.00    +0.000 HD
ENDROOT
BRANCH   1  26
ATOM     21  C2  UNL     1      17.185  42.225  31.651  0.00  0.00    +0.000 A 
ATOM     22  C3  UNL     1      16.158  43.063  32.131  0.00  0.00    +0.000 A 
ATOM     23  C4  UNL     1      16.174  43.516  33.452  0.00  0.00    +0.000 A 
ATOM     24  C5  UNL     1      17.210  43.142  34.307  0.00  0.00    +0.000 A 
ATOM     25  C6  UNL     1      18.235  42.316  33.846  0.00  0.00    +0.000 A 
ATOM     26  C7  UNL     1      18.239  41.854  32.518  0.00  0.00    +0.000 A 
BRANCH  21  28
ATOM     27  C1  UNL     1      16.110  41.037  29.727  0.00  0.00    +0.000 C 
ATOM     28  O1  UNL     1      17.186  41.743  30.332  0.00  0.00    +0.000 OA
ENDBRANCH  21  28
ENDBRANCH   1  26
BRANCH   8  29
ATOM     29  C14 UNL     1      19.827  37.228  36.323  0.00  0.00    +0.000 C 
BRANCH  29  30
ATOM     30  C15 UNL     1      19.783  38.275  37.411  0.00  0.00    +0.000 A 
ATOM     31  C16 UNL     1      19.828  39.632  37.038  0.00  0.00    +0.000 A 
ATOM     32  C17 UNL     1      19.817  40.637  38.006  0.00  0.00    +0.000 A 
ATOM     33  C18 UNL     1      19.766  40.302  39.360  0.00  0.00    +0.000 A 
ATOM     34  C19 UNL     1      19.720  38.962  39.748  0.00  0.00    +0.000 A 
ATOM     35  C20 UNL     1      19.728  37.943  38.785  0.00  0.00    +0.000 A 
ATOM     36 CL1  UNL     1      19.649  36.279  39.352  0.00  0.00    +0.000 Cl
ENDBRANCH  29  30
ENDBRANCH   8  29
TORSDOF 4
ENDMDL
MODEL 3
REMARK VINA RESULT:    -6.699      3.333      7.955
REMARK INTER + INTRA:          -9.518
REMARK INTER:                  -8.048
REMARK INTRA:                  -1.471
REMARK UNBOUND:                -1.254
REMARK  Name = CNP0185975_1.pdb
REMARK  5 active torsions:
REMARK  status: ('A' for Active; 'I' for Inactive)
REMARK    1  A    between atoms: C1_1  and  O1_2
REMARK    2  A    between atoms: O1_2  and  C2_3
REMARK    3  A    between atoms: C7_8  and  C8_9
REMARK    4  A    between atoms: N1_16  and  C14_17
REMARK    5  A    between atoms: C14_17  and  C15_18
REMARK                            x       y       z     vdW  Elec       q    Type
REMARK                         _______ _______ _______ _____ _____    ______ ____
ROOT
ATOM      1  C8  UNL     1      20.365  36.443  34.753  0.00  0.00    +0.000 C 
ATOM      2  C9  UNL     1      20.225  37.185  36.053  0.00  0.00    +0.000 A 
ATOM      3  C10 UNL     1      20.238  36.563  37.285  0.00  0.00    +0.000 A 
ATOM      4  C11 UNL     1      20.370  35.091  37.466  0.00  0.00    +0.000 C 
ATOM      5  C12 UNL     1      21.130  34.503  36.260  0.00  0.00    +0.000 C 
ATOM      6  C13 UNL     1      21.130  33.002  36.358  0.00  0.00    +0.000 C 
ATOM      7  O2  UNL     1      21.776  32.449  37.290  0.00  0.00    +0.000 OA
ATOM      8  N1  UNL     1      20.385  32.202  35.426  0.00  0.00    +0.000 N 
ATOM      9  C21 UNL     1      20.223  32.636  34.035  0.00  0.00    +0.000 C 
ATOM     10  C22 UNL     1      20.527  34.091  33.851  0.00  0.00    +0.000 C 
ATOM     11  O3  UNL     1      20.708  34.532  32.684  0.00  0.00    +0.000 OA
ATOM     12  N2  UNL     1      20.553  34.985  34.981  0.00  0.00    +0.000 N 
ATOM     13  C23 UNL     1      19.999  37.552  38.213  0.00  0.00    +0.000 A 
ATOM     14  C24 UNL     1      19.864  37.505  39.599  0.00  0.00    +0.000 A 
ATOM     15  C25 UNL     1      19.606  38.716  40.271  0.00  0.00    +0.000 A 
ATOM     16  C26 UNL     1      19.487  39.925  39.549  0.00  0.00    +0.000 A 
ATOM     17  C27 UNL     1      19.624  39.938  38.148  0.00  0.00    +0.000 A 
ATOM     18  C28 UNL     1      19.882  38.726  37.508  0.00  0.00    +0.000 A 
ATOM     19  N3  UNL     1      20.021  38.517  36.185  0.00  0.00    +0.000 N 
ATOM     20  H24 UNL     1      19.955  39.225  35.419  0.00  0.00    +0.000 HD
ENDROOT
BRANCH   1  26
ATOM     21  C2  UNL     1      19.227  37.431  32.685  0.00  0.00    +0.000 A 
ATOM     22  C3  UNL     1      18.061  37.659  31.928  0.00  0.00    +0.000 A 
ATOM     23  C4  UNL     1      16.827  37.173  32.365  0.00  0.00    +0.000 A 
ATOM     24  C5  UNL     1      16.740  36.457  33.558  0.00  0.00    +0.000 A 
ATOM     25  C6  UNL     1      17.885  36.226  34.321  0.00  0.00    +0.000 A 
ATOM     26  C7  UNL     1      19.135  36.711  33.900  0.00  0.00    +0.000 A 
BRANCH  21  28
ATOM     27  C1  UNL     1      20.979  39.209  32.489  0.00  0.00    +0.000 C 
ATOM     28  O1  UNL     1      20.483  37.895  32.263  0.00  0.00    +0.000 OA
ENDBRANCH  21  28
ENDBRANCH   1  26
BRANCH   8  29
ATOM     29  C14 UNL     1      19.908  30.870  35.817  0.00  0.00    +0.000 C 
BRANCH  29  30
ATOM     30  C15 UNL     1      18.621  30.987  36.599  0.00  0.00    +0.000 A 
ATOM     31  C16 UNL     1      18.694  31.062  38.003  0.00  0.00    +0.000 A 
ATOM     32  C17 UNL     1      17.532  31.145  38.773  0.00  0.00    +0.000 A 
ATOM     33  C18 UNL     1      16.281  31.150  38.152  0.00  0.00    +0.000 A 
ATOM     34  C19 UNL     1      16.191  31.078  36.761  0.00  0.00    +0.000 A 
ATOM     35  C20 UNL     1      17.350  30.996  35.977  0.00  0.00    +0.000 A 
ATOM     36 CL1  UNL     1      17.154  30.927  34.229  0.00  0.00    +0.000 Cl
ENDBRANCH  29  30
ENDBRANCH   8  29
TORSDOF 4
ENDMDL
MODEL 4
REMARK VINA RESULT:    -6.690      5.864      8.999
REMARK INTER + INTRA:          -9.508
REMARK INTER:                  -8.222
REMARK INTRA:                  -1.286
REMARK UNBOUND:                -1.254
REMARK  Name = CNP0185975_1.pdb
REMARK  5 active torsions:
REMARK  status: ('A' for Active; 'I' for Inactive)
REMARK    1  A    between atoms: C1_1  and  O1_2
REMARK    2  A    between atoms: O1_2  and  C2_3
REMARK    3  A    between atoms: C7_8  and  C8_9
REMARK    4  A    between atoms: N1_16  and  C14_17
REMARK    5  A    between atoms: C14_17  and  C15_18
REMARK                            x       y       z     vdW  Elec       q    Type
REMARK                         _______ _______ _______ _____ _____    ______ ____
ROOT
ATOM      1  C8  UNL     1      19.020  39.252  33.487  0.00  0.00    +0.000 C 
ATOM      2  C9  UNL     1      19.185  39.210  34.982  0.00  0.00    +0.000 A 
ATOM      3  C10 UNL     1      19.542  40.309  35.735  0.00  0.00    +0.000 A 
ATOM      4  C11 UNL     1      19.825  41.651  35.156  0.00  0.00    +0.000 C 
ATOM      5  C12 UNL     1      19.046  41.802  33.833  0.00  0.00    +0.000 C 
ATOM      6  C13 UNL     1      19.447  43.089  33.165  0.00  0.00    +0.000 C 
ATOM      7  O2  UNL     1      19.133  44.183  33.707  0.00  0.00    +0.000 OA
ATOM      8  N1  UNL     1      20.202  43.080  31.943  0.00  0.00    +0.000 N 
ATOM      9  C21 UNL     1      20.007  42.015  30.954  0.00  0.00    +0.000 C 
ATOM     10  C22 UNL     1      19.314  40.820  31.531  0.00  0.00    +0.000 C 
ATOM     11  O3  UNL     1      18.830  39.960  30.747  0.00  0.00    +0.000 OA
ATOM     12  N2  UNL     1      19.253  40.622  32.957  0.00  0.00    +0.000 N 
ATOM     13  C23 UNL     1      19.675  39.857  37.029  0.00  0.00    +0.000 A 
ATOM     14  C24 UNL     1      20.053  40.509  38.202  0.00  0.00    +0.000 A 
ATOM     15  C25 UNL     1      20.102  39.746  39.385  0.00  0.00    +0.000 A 
ATOM     16  C26 UNL     1      19.783  38.370  39.365  0.00  0.00    +0.000 A 
ATOM     17  C27 UNL     1      19.411  37.739  38.163  0.00  0.00    +0.000 A 
ATOM     18  C28 UNL     1      19.366  38.518  37.007  0.00  0.00    +0.000 A 
ATOM     19  N3  UNL     1      19.061  38.109  35.760  0.00  0.00    +0.000 N 
ATOM     20  H24 UNL     1      18.811  37.142  35.451  0.00  0.00    +0.000 HD
ENDROOT
BRANCH   1  26
ATOM     21  C2  UNL     1      19.507  37.035  32.306  0.00  0.00    +0.000 A 
ATOM     22  C3  UNL     1      20.428  36.134  31.738  0.00  0.00    +0.000 A 
ATOM     23  C4  UNL     1      21.791  36.439  31.710  0.00  0.00    +0.000 A 
ATOM     24  C5  UNL     1      22.250  37.639  32.248  0.00  0.00    +0.000 A 
ATOM     25  C6  UNL     1      21.351  38.541  32.819  0.00  0.00    +0.000 A 
ATOM     26  C7  UNL     1      19.976  38.250  32.860  0.00  0.00    +0.000 A 
BRANCH  21  28
ATOM     27  C1  UNL     1      17.504  35.847  33.225  0.00  0.00    +0.000 C 
ATOM     28  O1  UNL     1      18.130  36.762  32.334  0.00  0.00    +0.000 OA
ENDBRANCH  21  28
ENDBRANCH   1  26
BRANCH   8  29
ATOM     29  C14 UNL     1      21.063  44.220  31.603  0.00  0.00    +0.000 C 
BRANCH  29  30
ATOM     30  C15 UNL     1      22.456  43.998  32.145  0.00  0.00    +0.000 A 
ATOM     31  C16 UNL     1      22.917  42.676  32.288  0.00  0.00    +0.000 A 
ATOM     32  C17 UNL     1      24.186  42.417  32.810  0.00  0.00    +0.000 A 
ATOM     33  C18 UNL     1      25.011  43.474  33.198  0.00  0.00    +0.000 A 
ATOM     34  C19 UNL     1      24.569  44.791  33.061  0.00  0.00    +0.000 A 
ATOM     35  C20 UNL     1      23.298  45.064  32.538  0.00  0.00    +0.000 A 
ATOM     36 CL1  UNL     1      22.822  46.751  32.379  0.00  0.00    +0.000 Cl
ENDBRANCH  29  30
ENDBRANCH   8  29
TORSDOF 4
ENDMDL
MODEL 5
REMARK VINA RESULT:    -6.423      3.077      6.775
REMARK INTER + INTRA:          -9.178
REMARK INTER:                  -7.850
REMARK INTRA:                  -1.328
REMARK UNBOUND:                -1.254
REMARK  Name = CNP0185975_1.pdb
REMARK  5 active torsions:
REMARK  status: ('A' for Active; 'I' for Inactive)
REMARK    1  A    between atoms: C1_1  and  O1_2
REMARK    2  A    between atoms: O1_2  and  C2_3
REMARK    3  A    between atoms: C7_8  and  C8_9
REMARK    4  A    between atoms: N1_16  and  C14_17
REMARK    5  A    between atoms: C14_17  and  C15_18
REMARK                            x       y       z     vdW  Elec       q    Type
REMARK                         _______ _______ _______ _____ _____    ______ ____
ROOT
ATOM      1  C8  UNL     1      22.163  36.628  36.642  0.00  0.00    +0.000 C 
ATOM      2  C9  UNL     1      23.370  36.067  37.343  0.00  0.00    +0.000 A 
ATOM      3  C10 UNL     1      23.741  34.740  37.267  0.00  0.00    +0.000 A 
ATOM      4  C11 UNL     1      22.980  33.712  36.504  0.00  0.00    +0.000 C 
ATOM      5  C12 UNL     1      22.219  34.402  35.354  0.00  0.00    +0.000 C 
ATOM      6  C13 UNL     1      21.328  33.396  34.676  0.00  0.00    +0.000 C 
ATOM      7  O2  UNL     1      21.853  32.450  34.029  0.00  0.00    +0.000 OA
ATOM      8  N1  UNL     1      19.898  33.489  34.785  0.00  0.00    +0.000 N 
ATOM      9  C21 UNL     1      19.240  34.796  34.874  0.00  0.00    +0.000 C 
ATOM     10  C22 UNL     1      20.191  35.889  35.250  0.00  0.00    +0.000 C 
ATOM     11  O3  UNL     1      19.836  37.087  35.086  0.00  0.00    +0.000 OA
ATOM     12  N2  UNL     1      21.467  35.582  35.846  0.00  0.00    +0.000 N 
ATOM     13  C23 UNL     1      24.828  34.600  38.100  0.00  0.00    +0.000 A 
ATOM     14  C24 UNL     1      25.589  33.486  38.447  0.00  0.00    +0.000 A 
ATOM     15  C25 UNL     1      26.651  33.677  39.352  0.00  0.00    +0.000 A 
ATOM     16  C26 UNL     1      26.917  34.959  39.885  0.00  0.00    +0.000 A 
ATOM     17  C27 UNL     1      26.126  36.064  39.519  0.00  0.00    +0.000 A 
ATOM     18  C28 UNL     1      25.084  35.847  38.618  0.00  0.00    +0.000 A 
ATOM     19  N3  UNL     1      24.200  36.756  38.161  0.00  0.00    +0.000 N 
ATOM     20  H24 UNL     1      24.147  37.771  38.407  0.00  0.00    +0.000 HD
ENDROOT
BRANCH   1  26
ATOM     21  C2  UNL     1      20.961  38.626  37.695  0.00  0.00    +0.000 A 
ATOM     22  C3  UNL     1      20.096  39.149  38.676  0.00  0.00    +0.000 A 
ATOM     23  C4  UNL     1      19.504  38.307  39.620  0.00  0.00    +0.000 A 
ATOM     24  C5  UNL     1      19.767  36.938  39.598  0.00  0.00    +0.000 A 
ATOM     25  C6  UNL     1      20.625  36.405  38.635  0.00  0.00    +0.000 A 
ATOM     26  C7  UNL     1      21.233  37.238  37.680  0.00  0.00    +0.000 A 
BRANCH  21  28
ATOM     27  C1  UNL     1      20.850  40.343  35.875  0.00  0.00    +0.000 C 
ATOM     28  O1  UNL     1      21.557  39.447  36.724  0.00  0.00    +0.000 OA
ENDBRANCH  21  28
ENDBRANCH   1  26
BRANCH   8  29
ATOM     29  C14 UNL     1      19.071  32.282  34.652  0.00  0.00    +0.000 C 
BRANCH  29  30
ATOM     30  C15 UNL     1      18.536  31.869  36.003  0.00  0.00    +0.000 A 
ATOM     31  C16 UNL     1      19.325  32.118  37.142  0.00  0.00    +0.000 A 
ATOM     32  C17 UNL     1      18.886  31.730  38.410  0.00  0.00    +0.000 A 
ATOM     33  C18 UNL     1      17.657  31.087  38.558  0.00  0.00    +0.000 A 
ATOM     34  C19 UNL     1      16.861  30.834  37.439  0.00  0.00    +0.000 A 
ATOM     35  C20 UNL     1      17.289  31.219  36.161  0.00  0.00    +0.000 A 
ATOM     36 CL1  UNL     1      16.221  30.882  34.803  0.00  0.00    +0.000 Cl
ENDBRANCH  29  30
ENDBRANCH   8  29
TORSDOF 4
ENDMDL
MODEL 6
REMARK VINA RESULT:    -6.345     12.873     16.796
REMARK INTER + INTRA:          -9.082
REMARK INTER:                  -8.202
REMARK INTRA:                  -0.880
REMARK UNBOUND:                -1.254
REMARK  Name = CNP0185975_1.pdb
REMARK  5 active torsions:
REMARK  status: ('A' for Active; 'I' for Inactive)
REMARK    1  A    between atoms: C1_1  and  O1_2
REMARK    2  A    between atoms: O1_2  and  C2_3
REMARK    3  A    between atoms: C7_8  and  C8_9
REMARK    4  A    between atoms: N1_16  and  C14_17
REMARK    5  A    between atoms: C14_17  and  C15_18
REMARK                            x       y       z     vdW  Elec       q    Type
REMARK                         _______ _______ _______ _____ _____    ______ ____
ROOT
ATOM      1  C8  UNL     1      24.973  48.228  34.102  0.00  0.00    +0.000 C 
ATOM      2  C9  UNL     1      26.299  48.825  33.715  0.00  0.00    +0.000 A 
ATOM      3  C10 UNL     1      26.429  49.851  32.802  0.00  0.00    +0.000 A 
ATOM      4  C11 UNL     1      25.280  50.468  32.083  0.00  0.00    +0.000 C 
ATOM      5  C12 UNL     1      24.008  50.312  32.941  0.00  0.00    +0.000 C 
ATOM      6  C13 UNL     1      22.818  50.792  32.155  0.00  0.00    +0.000 C 
ATOM      7  O2  UNL     1      22.722  52.018  31.878  0.00  0.00    +0.000 OA
ATOM      8  N1  UNL     1      21.816  49.870  31.699  0.00  0.00    +0.000 N 
ATOM      9  C21 UNL     1      21.476  48.686  32.493  0.00  0.00    +0.000 C 
ATOM     10  C22 UNL     1      22.522  48.364  33.515  0.00  0.00    +0.000 C 
ATOM     11  O3  UNL     1      22.237  47.562  34.445  0.00  0.00    +0.000 OA
ATOM     12  N2  UNL     1      23.850  48.912  33.407  0.00  0.00    +0.000 N 
ATOM     13  C23 UNL     1      27.782  50.057  32.652  0.00  0.00    +0.000 A 
ATOM     14  C24 UNL     1      28.499  50.931  31.838  0.00  0.00    +0.000 A 
ATOM     15  C25 UNL     1      29.905  50.888  31.912  0.00  0.00    +0.000 A 
ATOM     16  C26 UNL     1      30.549  49.979  32.781  0.00  0.00    +0.000 A 
ATOM     17  C27 UNL     1      29.797  49.104  33.587  0.00  0.00    +0.000 A 
ATOM     18  C28 UNL     1      28.406  49.171  33.497  0.00  0.00    +0.000 A 
ATOM     19  N3  UNL     1      27.510  48.412  34.157  0.00  0.00    +0.000 N 
ATOM     20  H24 UNL     1      27.706  47.646  34.842  0.00  0.00    +0.000 HD
ENDROOT
BRANCH   1  26
ATOM     21  C2  UNL     1      25.413  45.791  34.744  0.00  0.00    +0.000 A 
ATOM     22  C3  UNL     1      25.418  44.424  34.406  0.00  0.00    +0.000 A 
ATOM     23  C4  UNL     1      25.003  44.006  33.139  0.00  0.00    +0.000 A 
ATOM     24  C5  UNL     1      24.581  44.944  32.198  0.00  0.00    +0.000 A 
ATOM     25  C6  UNL     1      24.573  46.302  32.516  0.00  0.00    +0.000 A 
ATOM     26  C7  UNL     1      24.992  46.741  33.785  0.00  0.00    +0.000 A 
BRANCH  21  28
ATOM     27  C1  UNL     1      25.002  46.177  37.184  0.00  0.00    +0.000 C 
ATOM     28  O1  UNL     1      25.811  46.238  36.015  0.00  0.00    +0.000 OA
ENDBRANCH  21  28
ENDBRANCH   1  26
BRANCH   8  29
ATOM     29  C14 UNL     1      21.015  50.184  30.509  0.00  0.00    +0.000 C 
BRANCH  29  30
ATOM     30  C15 UNL     1      19.573  50.413  30.900  0.00  0.00    +0.000 A 
ATOM     31  C16 UNL     1      19.254  51.565  31.642  0.00  0.00    +0.000 A 
ATOM     32  C17 UNL     1      17.942  51.808  32.051  0.00  0.00    +0.000 A 
ATOM     33  C18 UNL     1      16.930  50.903  31.726  0.00  0.00    +0.000 A 
ATOM     34  C19 UNL     1      17.229  49.756  30.989  0.00  0.00    +0.000 A 
ATOM     35  C20 UNL     1      18.542  49.501  30.572  0.00  0.00    +0.000 A 
ATOM     36 CL1  UNL     1      18.835  48.044  29.630  0.00  0.00    +0.000 Cl
ENDBRANCH  29  30
ENDBRANCH   8  29
TORSDOF 4
ENDMDL
MODEL 7
REMARK VINA RESULT:    -6.311      4.341      6.605
REMARK INTER + INTRA:          -9.040
REMARK INTER:                  -8.313
REMARK INTRA:                  -0.727
REMARK UNBOUND:                -1.254
REMARK  Name = CNP0185975_1.pdb
REMARK  5 active torsions:
REMARK  status: ('A' for Active; 'I' for Inactive)
REMARK    1  A    between atoms: C1_1  and  O1_2
REMARK    2  A    between atoms: O1_2  and  C2_3
REMARK    3  A    between atoms: C7_8  and  C8_9
REMARK    4  A    between atoms: N1_16  and  C14_17
REMARK    5  A    between atoms: C14_17  and  C15_18
REMARK                            x       y       z     vdW  Elec       q    Type
REMARK                         _______ _______ _______ _____ _____    ______ ____
ROOT
ATOM      1  C8  UNL     1      20.180  37.420  35.248  0.00  0.00    +0.000 C 
ATOM      2  C9  UNL     1      19.409  36.341  34.538  0.00  0.00    +0.000 A 
ATOM      3  C10 UNL     1      18.366  36.601  33.672  0.00  0.00    +0.000 A 
ATOM      4  C11 UNL     1      17.874  37.971  33.360  0.00  0.00    +0.000 C 
ATOM      5  C12 UNL     1      19.028  38.976  33.554  0.00  0.00    +0.000 C 
ATOM      6  C13 UNL     1      18.499  40.375  33.391  0.00  0.00    +0.000 C 
ATOM      7  O2  UNL     1      18.096  40.750  32.257  0.00  0.00    +0.000 OA
ATOM      8  N1  UNL     1      18.423  41.268  34.514  0.00  0.00    +0.000 N 
ATOM      9  C21 UNL     1      19.423  41.207  35.584  0.00  0.00    +0.000 C 
ATOM     10  C22 UNL     1      20.193  39.923  35.573  0.00  0.00    +0.000 C 
ATOM     11  O3  UNL     1      21.260  39.848  36.240  0.00  0.00    +0.000 OA
ATOM     12  N2  UNL     1      19.695  38.772  34.863  0.00  0.00    +0.000 N 
ATOM     13  C23 UNL     1      17.866  35.373  33.298  0.00  0.00    +0.000 A 
ATOM     14  C24 UNL     1      16.797  35.022  32.478  0.00  0.00    +0.000 A 
ATOM     15  C25 UNL     1      16.532  33.650  32.303  0.00  0.00    +0.000 A 
ATOM     16  C26 UNL     1      17.329  32.677  32.948  0.00  0.00    +0.000 A 
ATOM     17  C27 UNL     1      18.400  33.065  33.775  0.00  0.00    +0.000 A 
ATOM     18  C28 UNL     1      18.643  34.430  33.929  0.00  0.00    +0.000 A 
ATOM     19  N3  UNL     1      19.593  35.008  34.689  0.00  0.00    +0.000 N 
ATOM     20  H24 UNL     1      20.303  34.533  35.291  0.00  0.00    +0.000 HD
ENDROOT
BRANCH   1  26
ATOM     21  C2  UNL     1      21.141  36.679  37.500  0.00  0.00    +0.000 A 
ATOM     22  C3  UNL     1      20.987  36.489  38.888  0.00  0.00    +0.000 A 
ATOM     23  C4  UNL     1      19.786  36.821  39.519  0.00  0.00    +0.000 A 
ATOM     24  C5  UNL     1      18.728  37.343  38.777  0.00  0.00    +0.000 A 
ATOM     25  C6  UNL     1      18.863  37.533  37.401  0.00  0.00    +0.000 A 
ATOM     26  C7  UNL     1      20.063  37.200  36.748  0.00  0.00    +0.000 A 
BRANCH  21  28
ATOM     27  C1  UNL     1      22.814  35.048  36.598  0.00  0.00    +0.000 C 
ATOM     28  O1  UNL     1      22.342  36.368  36.842  0.00  0.00    +0.000 OA
ENDBRANCH  21  28
ENDBRANCH   1  26
BRANCH   8  29
ATOM     29  C14 UNL     1      17.433  42.353  34.525  0.00  0.00    +0.000 C 
BRANCH  29  30
ATOM     30  C15 UNL     1      17.825  43.424  33.534  0.00  0.00    +0.000 A 
ATOM     31  C16 UNL     1      19.096  44.017  33.656  0.00  0.00    +0.000 A 
ATOM     32  C17 UNL     1      19.495  45.030  32.781  0.00  0.00    +0.000 A 
ATOM     33  C18 UNL     1      18.630  45.467  31.777  0.00  0.00    +0.000 A 
ATOM     34  C19 UNL     1      17.367  44.888  31.641  0.00  0.00    +0.000 A 
ATOM     35  C20 UNL     1      16.955  43.869  32.512  0.00  0.00    +0.000 A 
ATOM     36 CL1  UNL     1      15.356  43.177  32.265  0.00  0.00    +0.000 Cl
ENDBRANCH  29  30
ENDBRANCH   8  29
TORSDOF 4
ENDMDL
MODEL 8
REMARK VINA RESULT:    -6.275      7.600      9.857
REMARK INTER + INTRA:          -8.996
REMARK INTER:                  -7.609
REMARK INTRA:                  -1.387
REMARK UNBOUND:                -1.254
REMARK  Name = CNP0185975_1.pdb
REMARK  5 active torsions:
REMARK  status: ('A' for Active; 'I' for Inactive)
REMARK    1  A    between atoms: C1_1  and  O1_2
REMARK    2  A    between atoms: O1_2  and  C2_3
REMARK    3  A    between atoms: C7_8  and  C8_9
REMARK    4  A    between atoms: N1_16  and  C14_17
REMARK    5  A    between atoms: C14_17  and  C15_18
REMARK                            x       y       z     vdW  Elec       q    Type
REMARK                         _______ _______ _______ _____ _____    ______ ____
ROOT
ATOM      1  C8  UNL     1      30.144  36.079  40.718  0.00  0.00    +0.000 C 
ATOM      2  C9  UNL     1      28.701  35.722  40.488  0.00  0.00    +0.000 A 
ATOM      3  C10 UNL     1      28.147  35.581  39.232  0.00  0.00    +0.000 A 
ATOM      4  C11 UNL     1      28.905  35.788  37.967  0.00  0.00    +0.000 C 
ATOM      5  C12 UNL     1      30.398  35.501  38.224  0.00  0.00    +0.000 C 
ATOM      6  C13 UNL     1      31.189  35.856  36.994  0.00  0.00    +0.000 C 
ATOM      7  O2  UNL     1      31.032  35.174  35.946  0.00  0.00    +0.000 OA
ATOM      8  N1  UNL     1      32.092  36.975  36.997  0.00  0.00    +0.000 N 
ATOM      9  C21 UNL     1      32.823  37.339  38.215  0.00  0.00    +0.000 C 
ATOM     10  C22 UNL     1      32.224  36.729  39.445  0.00  0.00    +0.000 C 
ATOM     11  O3  UNL     1      32.900  36.718  40.509  0.00  0.00    +0.000 OA
ATOM     12  N2  UNL     1      30.877  36.217  39.431  0.00  0.00    +0.000 N 
ATOM     13  C23 UNL     1      26.806  35.341  39.432  0.00  0.00    +0.000 A 
ATOM     14  C24 UNL     1      25.755  35.160  38.536  0.00  0.00    +0.000 A 
ATOM     15  C25 UNL     1      24.471  34.941  39.070  0.00  0.00    +0.000 A 
ATOM     16  C26 UNL     1      24.272  34.915  40.469  0.00  0.00    +0.000 A 
ATOM     17  C27 UNL     1      25.353  35.107  41.349  0.00  0.00    +0.000 A 
ATOM     18  C28 UNL     1      26.614  35.319  40.794  0.00  0.00    +0.000 A 
ATOM     19  N3  UNL     1      27.767  35.547  41.453  0.00  0.00    +0.000 N 
ATOM     20  H24 UNL     1      27.908  35.607  42.487  0.00  0.00    +0.000 HD
ENDROOT
BRANCH   1  26
ATOM     21  C2  UNL     1      30.647  37.363  42.873  0.00  0.00    +0.000 A 
ATOM     22  C3  UNL     1      30.688  38.576  43.587  0.00  0.00    +0.000 A 
ATOM     23  C4  UNL     1      30.309  39.772  42.973  0.00  0.00    +0.000 A 
ATOM     24  C5  UNL     1      29.885  39.772  41.645  0.00  0.00    +0.000 A 
ATOM     25  C6  UNL     1      29.836  38.578  40.925  0.00  0.00    +0.000 A 
ATOM     26  C7  UNL     1      30.209  37.364  41.528  0.00  0.00    +0.000 A 
BRANCH  21  28
ATOM     27  C1  UNL     1      31.452  35.999  44.813  0.00  0.00    +0.000 C 
ATOM     28  O1  UNL     1      31.036  36.148  43.460  0.00  0.00    +0.000 OA
ENDBRANCH  21  28
ENDBRANCH   1  26
BRANCH   8  29
ATOM     29  C14 UNL     1      32.407  37.668  35.742  0.00  0.00    +0.000 C 
BRANCH  29  30
ATOM     30  C15 UNL     1      31.539  38.896  35.595  0.00  0.00    +0.000 A 
ATOM     31  C16 UNL     1      31.893  40.057  36.310  0.00  0.00    +0.000 A 
ATOM     32  C17 UNL     1      31.109  41.209  36.230  0.00  0.00    +0.000 A 
ATOM     33  C18 UNL     1      29.960  41.218  35.437  0.00  0.00    +0.000 A 
ATOM     34  C19 UNL     1      29.596  40.077  34.721  0.00  0.00    +0.000 A 
ATOM     35  C20 UNL     1      30.375  38.914  34.792  0.00  0.00    +0.000 A 
ATOM     36 CL1  UNL     1      29.860  37.523  33.845  0.00  0.00    +0.000 Cl
ENDBRANCH  29  30
ENDBRANCH   8  29
TORSDOF 4
ENDMDL
MODEL 9
REMARK VINA RESULT:    -6.274      2.834      6.101
REMARK INTER + INTRA:          -8.994
REMARK INTER:                  -7.509
REMARK INTRA:                  -1.485
REMARK UNBOUND:                -1.254
REMARK  Name = CNP0185975_1.pdb
REMARK  5 active torsions:
REMARK  status: ('A' for Active; 'I' for Inactive)
REMARK    1  A    between atoms: C1_1  and  O1_2
REMARK    2  A    between atoms: O1_2  and  C2_3
REMARK    3  A    between atoms: C7_8  and  C8_9
REMARK    4  A    between atoms: N1_16  and  C14_17
REMARK    5  A    between atoms: C14_17  and  C15_18
REMARK                            x       y       z     vdW  Elec       q    Type
REMARK                         _______ _______ _______ _____ _____    ______ ____
ROOT
ATOM      1  C8  UNL     1      20.750  35.544  37.754  0.00  0.00    +0.000 C 
ATOM      2  C9  UNL     1      20.320  36.884  38.286  0.00  0.00    +0.000 A 
ATOM      3  C10 UNL     1      20.285  38.028  37.516  0.00  0.00    +0.000 A 
ATOM      4  C11 UNL     1      20.687  38.073  36.083  0.00  0.00    +0.000 C 
ATOM      5  C12 UNL     1      20.479  36.677  35.459  0.00  0.00    +0.000 C 
ATOM      6  C13 UNL     1      21.028  36.674  34.059  0.00  0.00    +0.000 C 
ATOM      7  O2  UNL     1      20.460  37.373  33.177  0.00  0.00    +0.000 OA
ATOM      8  N1  UNL     1      22.200  35.910  33.729  0.00  0.00    +0.000 N 
ATOM      9  C21 UNL     1      22.474  34.638  34.402  0.00  0.00    +0.000 C 
ATOM     10  C22 UNL     1      21.687  34.479  35.666  0.00  0.00    +0.000 C 
ATOM     11  O3  UNL     1      21.603  33.336  36.191  0.00  0.00    +0.000 OA
ATOM     12  N2  UNL     1      21.086  35.621  36.307  0.00  0.00    +0.000 N 
ATOM     13  C23 UNL     1      19.929  39.050  38.368  0.00  0.00    +0.000 A 
ATOM     14  C24 UNL     1      19.777  40.419  38.158  0.00  0.00    +0.000 A 
ATOM     15  C25 UNL     1      19.408  41.212  39.261  0.00  0.00    +0.000 A 
ATOM     16  C26 UNL     1      19.209  40.625  40.531  0.00  0.00    +0.000 A 
ATOM     17  C27 UNL     1      19.376  39.240  40.713  0.00  0.00    +0.000 A 
ATOM     18  C28 UNL     1      19.738  38.477  39.603  0.00  0.00    +0.000 A 
ATOM     19  N3  UNL     1      19.971  37.150  39.567  0.00  0.00    +0.000 N 
ATOM     20  H24 UNL     1      19.923  36.474  40.362  0.00  0.00    +0.000 HD
ENDROOT
BRANCH   1  26
ATOM     21  C2  UNL     1      21.811  33.962  39.462  0.00  0.00    +0.000 A 
ATOM     22  C3  UNL     1      22.935  33.540  40.198  0.00  0.00    +0.000 A 
ATOM     23  C4  UNL     1      24.165  34.182  40.042  0.00  0.00    +0.000 A 
ATOM     24  C5  UNL     1      24.289  35.250  39.154  0.00  0.00    +0.000 A 
ATOM     25  C6  UNL     1      23.184  35.682  38.420  0.00  0.00    +0.000 A 
ATOM     26  C7  UNL     1      21.936  35.051  38.568  0.00  0.00    +0.000 A 
BRANCH  21  28
ATOM     27  C1  UNL     1      20.314  31.965  39.254  0.00  0.00    +0.000 C 
ATOM     28  O1  UNL     1      20.565  33.325  39.587  0.00  0.00    +0.000 OA
ENDBRANCH  21  28
ENDBRANCH   1  26
BRANCH   8  29
ATOM     29  C14 UNL     1      23.052  36.321  32.606  0.00  0.00    +0.000 C 
BRANCH  29  30
ATOM     30  C15 UNL     1      24.359  36.877  33.122  0.00  0.00    +0.000 A 
ATOM     31  C16 UNL     1      25.461  36.009  33.231  0.00  0.00    +0.000 A 
ATOM     32  C17 UNL     1      26.683  36.467  33.728  0.00  0.00    +0.000 A 
ATOM     33  C18 UNL     1      26.820  37.798  34.126  0.00  0.00    +0.000 A 
ATOM     34  C19 UNL     1      25.737  38.673  34.023  0.00  0.00    +0.000 A 
ATOM     35  C20 UNL     1      24.506  38.225  33.524  0.00  0.00    +0.000 A 
ATOM     36 CL1  UNL     1      23.195  39.394  33.408  0.00  0.00    +0.000 Cl
ENDBRANCH  29  30
ENDBRANCH   8  29
TORSDOF 4
ENDMDL
MODEL 10
REMARK VINA RESULT:    -6.163      4.306      8.575
REMARK INTER + INTRA:          -8.858
REMARK INTER:                  -7.385
REMARK INTRA:                  -1.473
REMARK UNBOUND:                -1.254
REMARK  Name = CNP0185975_1.pdb
REMARK  5 active torsions:
REMARK  status: ('A' for Active; 'I' for Inactive)
REMARK    1  A    between atoms: C1_1  and  O1_2
REMARK    2  A    between atoms: O1_2  and  C2_3
REMARK    3  A    between atoms: C7_8  and  C8_9
REMARK    4  A    between atoms: N1_16  and  C14_17
REMARK    5  A    between atoms: C14_17  and  C15_18
REMARK                            x       y       z     vdW  Elec       q    Type
REMARK                         _______ _______ _______ _____ _____    ______ ____
ROOT
ATOM      1  C8  UNL     1      18.801  39.773  35.269  0.00  0.00    +0.000 C 
ATOM      2  C9  UNL     1      18.014  38.852  34.378  0.00  0.00    +0.000 A 
ATOM      3  C10 UNL     1      18.064  37.477  34.478  0.00  0.00    +0.000 A 
ATOM      4  C11 UNL     1      18.915  36.750  35.460  0.00  0.00    +0.000 C 
ATOM      5  C12 UNL     1      19.150  37.655  36.687  0.00  0.00    +0.000 C 
ATOM      6  C13 UNL     1      20.134  36.990  37.612  0.00  0.00    +0.000 C 
ATOM      7  O2  UNL     1      19.796  35.931  38.206  0.00  0.00    +0.000 OA
ATOM      8  N1  UNL     1      21.451  37.532  37.797  0.00  0.00    +0.000 N 
ATOM      9  C21 UNL     1      21.676  38.980  37.746  0.00  0.00    +0.000 C 
ATOM     10  C22 UNL     1      20.543  39.711  37.095  0.00  0.00    +0.000 C 
ATOM     11  O3  UNL     1      20.465  40.961  37.236  0.00  0.00    +0.000 OA
ATOM     12  N2  UNL     1      19.591  39.009  36.272  0.00  0.00    +0.000 N 
ATOM     13  C23 UNL     1      17.287  36.992  33.450  0.00  0.00    +0.000 A 
ATOM     14  C24 UNL     1      17.004  35.691  33.039  0.00  0.00    +0.000 A 
ATOM     15  C25 UNL     1      16.165  35.527  31.920  0.00  0.00    +0.000 A 
ATOM     16  C26 UNL     1      15.641  36.654  31.246  0.00  0.00    +0.000 A 
ATOM     17  C27 UNL     1      15.950  37.956  31.682  0.00  0.00    +0.000 A 
ATOM     18  C28 UNL     1      16.781  38.089  32.794  0.00  0.00    +0.000 A 
ATOM     19  N3  UNL     1      17.216  39.235  33.354  0.00  0.00    +0.000 N 
ATOM     20  H24 UNL     1      17.007  40.212  33.047  0.00  0.00    +0.000 HD
ENDROOT
BRANCH   1  26
ATOM     21  C2  UNL     1      19.400  41.999  34.159  0.00  0.00    +0.000 A 
ATOM     22  C3  UNL     1      20.262  42.764  33.350  0.00  0.00    +0.000 A 
ATOM     23  C4  UNL     1      21.411  42.192  32.801  0.00  0.00    +0.000 A 
ATOM     24  C5  UNL     1      21.713  40.854  33.050  0.00  0.00    +0.000 A 
ATOM     25  C6  UNL     1      20.868  40.082  33.847  0.00  0.00    +0.000 A 
ATOM     26  C7  UNL     1      19.703  40.640  34.405  0.00  0.00    +0.000 A 
BRANCH  21  28
ATOM     27  C1  UNL     1      17.287  43.338  34.037  0.00  0.00    +0.000 C 
ATOM     28  O1  UNL     1      18.245  42.553  34.736  0.00  0.00    +0.000 OA
ENDBRANCH  21  28
ENDBRANCH   1  26
BRANCH   8  29
ATOM     29  C14 UNL     1      22.559  36.652  38.193  0.00  0.00    +0.000 C 
BRANCH  29  30
ATOM     30  C15 UNL     1      23.016  35.830  37.011  0.00  0.00    +0.000 A 
ATOM     31  C16 UNL     1      23.557  36.500  35.897  0.00  0.00    +0.000 A 
ATOM     32  C17 UNL     1      23.969  35.788  34.769  0.00  0.00    +0.000 A 
ATOM     33  C18 UNL     1      23.845  34.398  34.736  0.00  0.00    +0.000 A 
ATOM     34  C19 UNL     1      23.313  33.718  35.833  0.00  0.00    +0.000 A 
ATOM     35  C20 UNL     1      22.897  34.421  36.972  0.00  0.00    +0.000 A 
ATOM     36 CL1  UNL     1      22.254  33.491  38.321  0.00  0.00    +0.000 Cl
ENDBRANCH  29  30
ENDBRANCH   8  29
TORSDOF 4
ENDMDL
