MODEL 1
REMARK VINA RESULT:    -7.230      0.000      0.000
REMARK INTER + INTRA:          -7.997
REMARK INTER:                  -7.652
REMARK INTRA:                  -0.345
REMARK UNBOUND:                -0.345
REMARK  Name = CNP0130524_0.pdb
REMARK  1 active torsions:
REMARK  status: ('A' for Active; 'I' for Inactive)
REMARK    1  A    between atoms: N1_7  and  C5_8
REMARK                            x       y       z     vdW  Elec       q    Type
REMARK                         _______ _______ _______ _____ _____    ______ ____
ROOT
ATOM      1  O1  UNL     1      20.457  40.901  37.936  0.00  0.00    +0.000 OA
ATOM      2  C1  UNL     1      20.129  39.890  37.258  0.00  0.00    +0.000 A 
ATOM      3  O2  UNL     1      20.494  38.691  37.684  0.00  0.00    +0.000 OA
ATOM      4  C2  UNL     1      20.198  37.564  37.044  0.00  0.00    +0.000 A 
ATOM      5  C3  UNL     1      20.636  36.338  37.581  0.00  0.00    +0.000 A 
ATOM      6  C4  UNL     1      21.425  36.302  38.869  0.00  0.00    +0.000 C 
ATOM      7  N1  UNL     1      22.060  34.994  39.064  0.00  0.00    +0.000 N 
ATOM      8  C11 UNL     1      21.276  33.796  38.764  0.00  0.00    +0.000 C 
ATOM      9  O3  UNL     1      20.710  33.907  37.463  0.00  0.00    +0.000 OA
ATOM     10  C12 UNL     1      20.304  35.136  36.933  0.00  0.00    +0.000 A 
ATOM     11  C13 UNL     1      19.582  35.161  35.743  0.00  0.00    +0.000 A 
ATOM     12  C14 UNL     1      19.158  36.372  35.195  0.00  0.00    +0.000 A 
ATOM     13  C15 UNL     1      19.452  37.597  35.836  0.00  0.00    +0.000 A 
ATOM     14  C16 UNL     1      19.041  38.864  35.338  0.00  0.00    +0.000 A 
ATOM     15  C17 UNL     1      18.296  39.023  34.144  0.00  0.00    +0.000 A 
ATOM     16  C18 UNL     1      17.916  40.291  33.700  0.00  0.00    +0.000 A 
ATOM     17  C19 UNL     1      18.267  41.425  34.428  0.00  0.00    +0.000 A 
ATOM     18  C20 UNL     1      18.998  41.300  35.606  0.00  0.00    +0.000 A 
ATOM     19  C21 UNL     1      19.390  40.030  36.071  0.00  0.00    +0.000 A 
ENDROOT
BRANCH   7  20
ATOM     20  C5  UNL     1      23.226  34.885  39.896  0.00  0.00    +0.000 A 
ATOM     21  C6  UNL     1      23.100  34.470  41.232  0.00  0.00    +0.000 A 
ATOM     22  C7  UNL     1      24.230  34.356  42.045  0.00  0.00    +0.000 A 
ATOM     23  C8  UNL     1      25.494  34.656  41.532  0.00  0.00    +0.000 A 
ATOM     24  C9  UNL     1      25.630  35.077  40.206  0.00  0.00    +0.000 A 
ATOM     25  C10 UNL     1      24.501  35.194  39.384  0.00  0.00    +0.000 A 
ATOM     26 CL1  UNL     1      24.703  35.772  37.736  0.00  0.00    +0.000 Cl
ENDBRANCH   7  20
TORSDOF 1
ENDMDL
MODEL 2
REMARK VINA RESULT:    -7.051      4.586      8.832
REMARK INTER + INTRA:          -7.808
REMARK INTER:                  -7.454
REMARK INTRA:                  -0.354
REMARK UNBOUND:                -0.345
REMARK  Name = CNP0130524_0.pdb
REMARK  1 active torsions:
REMARK  status: ('A' for Active; 'I' for Inactive)
REMARK    1  A    between atoms: N1_7  and  C5_8
REMARK                            x       y       z     vdW  Elec       q    Type
REMARK                         _______ _______ _______ _____ _____    ______ ____
ROOT
ATOM      1  O1  UNL     1      20.171  41.443  38.711  0.00  0.00    +0.000 OA
ATOM      2  C1  UNL     1      20.000  40.557  37.830  0.00  0.00    +0.000 A 
ATOM      3  O2  UNL     1      20.015  40.915  36.555  0.00  0.00    +0.000 OA
ATOM      4  C2  UNL     1      19.845  40.060  35.552  0.00  0.00    +0.000 A 
ATOM      5  C3  UNL     1      19.875  40.544  34.230  0.00  0.00    +0.000 A 
ATOM      6  C4  UNL     1      20.104  42.012  33.954  0.00  0.00    +0.000 C 
ATOM      7  N1  UNL     1      19.764  42.349  32.567  0.00  0.00    +0.000 N 
ATOM      8  C11 UNL     1      20.188  41.429  31.511  0.00  0.00    +0.000 C 
ATOM      9  O3  UNL     1      19.779  40.105  31.836  0.00  0.00    +0.000 OA
ATOM     10  C12 UNL     1      19.729  39.648  33.157  0.00  0.00    +0.000 A 
ATOM     11  C13 UNL     1      19.514  38.294  33.403  0.00  0.00    +0.000 A 
ATOM     12  C14 UNL     1      19.465  37.809  34.710  0.00  0.00    +0.000 A 
ATOM     13  C15 UNL     1      19.636  38.680  35.811  0.00  0.00    +0.000 A 
ATOM     14  C16 UNL     1      19.609  38.249  37.166  0.00  0.00    +0.000 A 
ATOM     15  C17 UNL     1      19.406  36.900  37.547  0.00  0.00    +0.000 A 
ATOM     16  C18 UNL     1      19.391  36.531  38.893  0.00  0.00    +0.000 A 
ATOM     17  C19 UNL     1      19.575  37.488  39.887  0.00  0.00    +0.000 A 
ATOM     18  C20 UNL     1      19.778  38.823  39.543  0.00  0.00    +0.000 A 
ATOM     19  C21 UNL     1      19.797  39.215  38.190  0.00  0.00    +0.000 A 
ENDROOT
BRANCH   7  20
ATOM     20  C5  UNL     1      19.411  43.698  32.228  0.00  0.00    +0.000 A 
ATOM     21  C6  UNL     1      20.371  44.720  32.319  0.00  0.00    +0.000 A 
ATOM     22  C7  UNL     1      20.036  46.035  31.984  0.00  0.00    +0.000 A 
ATOM     23  C8  UNL     1      18.742  46.340  31.559  0.00  0.00    +0.000 A 
ATOM     24  C9  UNL     1      17.778  45.332  31.471  0.00  0.00    +0.000 A 
ATOM     25  C10 UNL     1      18.105  44.012  31.805  0.00  0.00    +0.000 A 
ATOM     26 CL1  UNL     1      16.854  42.778  31.729  0.00  0.00    +0.000 Cl
ENDBRANCH   7  20
TORSDOF 1
ENDMDL
MODEL 3
REMARK VINA RESULT:    -6.954      8.198     10.323
REMARK INTER + INTRA:          -7.705
REMARK INTER:                  -7.437
REMARK INTRA:                  -0.268
REMARK UNBOUND:                -0.345
REMARK  Name = CNP0130524_0.pdb
REMARK  1 active torsions:
REMARK  status: ('A' for Active; 'I' for Inactive)
REMARK    1  A    between atoms: N1_7  and  C5_8
REMARK                            x       y       z     vdW  Elec       q    Type
REMARK                         _______ _______ _______ _____ _____    ______ ____
ROOT
ATOM      1  O1  UNL     1      30.997  36.521  33.442  0.00  0.00    +0.000 OA
ATOM      2  C1  UNL     1      30.959  37.666  33.968  0.00  0.00    +0.000 A 
ATOM      3  O2  UNL     1      30.702  37.763  35.263  0.00  0.00    +0.000 OA
ATOM      4  C2  UNL     1      30.642  38.921  35.913  0.00  0.00    +0.000 A 
ATOM      5  C3  UNL     1      30.358  38.916  37.293  0.00  0.00    +0.000 A 
ATOM      6  C4  UNL     1      30.135  37.614  38.026  0.00  0.00    +0.000 C 
ATOM      7  N1  UNL     1      29.532  37.846  39.343  0.00  0.00    +0.000 N 
ATOM      8  C11 UNL     1      30.046  38.952  40.151  0.00  0.00    +0.000 C 
ATOM      9  O3  UNL     1      30.066  40.145  39.375  0.00  0.00    +0.000 OA
ATOM     10  C12 UNL     1      30.322  40.130  38.000  0.00  0.00    +0.000 A 
ATOM     11  C13 UNL     1      30.523  41.334  37.331  0.00  0.00    +0.000 A 
ATOM     12  C14 UNL     1      30.787  41.350  35.960  0.00  0.00    +0.000 A 
ATOM     13  C15 UNL     1      30.857  40.144  35.225  0.00  0.00    +0.000 A 
ATOM     14  C16 UNL     1      31.133  40.089  33.831  0.00  0.00    +0.000 A 
ATOM     15  C17 UNL     1      31.363  41.241  33.039  0.00  0.00    +0.000 A 
ATOM     16  C18 UNL     1      31.631  41.130  31.674  0.00  0.00    +0.000 A 
ATOM     17  C19 UNL     1      31.677  39.878  31.066  0.00  0.00    +0.000 A 
ATOM     18  C20 UNL     1      31.456  38.728  31.819  0.00  0.00    +0.000 A 
ATOM     19  C21 UNL     1      31.184  38.819  33.197  0.00  0.00    +0.000 A 
ENDROOT
BRANCH   7  20
ATOM     20  C5  UNL     1      28.778  36.800  39.976  0.00  0.00    +0.000 A 
ATOM     21  C6  UNL     1      27.376  36.792  39.888  0.00  0.00    +0.000 A 
ATOM     22  C7  UNL     1      26.637  35.774  40.496  0.00  0.00    +0.000 A 
ATOM     23  C8  UNL     1      27.290  34.759  41.198  0.00  0.00    +0.000 A 
ATOM     24  C9  UNL     1      28.684  34.761  41.297  0.00  0.00    +0.000 A 
ATOM     25  C10 UNL     1      29.433  35.778  40.690  0.00  0.00    +0.000 A 
ATOM     26 CL1  UNL     1      31.181  35.777  40.877  0.00  0.00    +0.000 Cl
ENDBRANCH   7  20
TORSDOF 1
ENDMDL
MODEL 4
REMARK VINA RESULT:    -6.800      2.977      5.219
REMARK INTER + INTRA:          -7.543
REMARK INTER:                  -7.165
REMARK INTRA:                  -0.378
REMARK UNBOUND:                -0.345
REMARK  Name = CNP0130524_0.pdb
REMARK  1 active torsions:
REMARK  status: ('A' for Active; 'I' for Inactive)
REMARK    1  A    between atoms: N1_7  and  C5_8
REMARK                            x       y       z     vdW  Elec       q    Type
REMARK                         _______ _______ _______ _____ _____    ______ ____
ROOT
ATOM      1  O1  UNL     1      17.042  36.482  32.142  0.00  0.00    +0.000 OA
ATOM      2  C1  UNL     1      17.107  37.652  32.607  0.00  0.00    +0.000 A 
ATOM      3  O2  UNL     1      17.987  37.911  33.561  0.00  0.00    +0.000 OA
ATOM      4  C2  UNL     1      18.135  39.109  34.116  0.00  0.00    +0.000 A 
ATOM      5  C3  UNL     1      19.100  39.279  35.128  0.00  0.00    +0.000 A 
ATOM      6  C4  UNL     1      19.960  38.119  35.572  0.00  0.00    +0.000 C 
ATOM      7  N1  UNL     1      20.639  38.418  36.837  0.00  0.00    +0.000 N 
ATOM      8  C11 UNL     1      21.227  39.747  37.006  0.00  0.00    +0.000 C 
ATOM      9  O3  UNL     1      20.260  40.743  36.692  0.00  0.00    +0.000 OA
ATOM     10  C12 UNL     1      19.290  40.548  35.702  0.00  0.00    +0.000 A 
ATOM     11  C13 UNL     1      18.499  41.621  35.302  0.00  0.00    +0.000 A 
ATOM     12  C14 UNL     1      17.529  41.458  34.312  0.00  0.00    +0.000 A 
ATOM     13  C15 UNL     1      17.331  40.201  33.696  0.00  0.00    +0.000 A 
ATOM     14  C16 UNL     1      16.369  39.970  32.674  0.00  0.00    +0.000 A 
ATOM     15  C17 UNL     1      15.509  40.979  32.175  0.00  0.00    +0.000 A 
ATOM     16  C18 UNL     1      14.583  40.698  31.169  0.00  0.00    +0.000 A 
ATOM     17  C19 UNL     1      14.488  39.414  30.640  0.00  0.00    +0.000 A 
ATOM     18  C20 UNL     1      15.320  38.401  31.110  0.00  0.00    +0.000 A 
ATOM     19  C21 UNL     1      16.261  38.665  32.124  0.00  0.00    +0.000 A 
ENDROOT
BRANCH   7  20
ATOM     20  C5  UNL     1      21.070  37.342  37.686  0.00  0.00    +0.000 A 
ATOM     21  C6  UNL     1      22.350  36.788  37.523  0.00  0.00    +0.000 A 
ATOM     22  C7  UNL     1      22.777  35.745  38.350  0.00  0.00    +0.000 A 
ATOM     23  C8  UNL     1      21.931  35.248  39.342  0.00  0.00    +0.000 A 
ATOM     24  C9  UNL     1      20.652  35.788  39.508  0.00  0.00    +0.000 A 
ATOM     25  C10 UNL     1      20.216  36.833  38.684  0.00  0.00    +0.000 A 
ATOM     26 CL1  UNL     1      18.585  37.456  38.888  0.00  0.00    +0.000 Cl
ENDBRANCH   7  20
TORSDOF 1
ENDMDL
MODEL 5
REMARK VINA RESULT:    -6.647      2.748      8.114
REMARK INTER + INTRA:          -7.381
REMARK INTER:                  -7.107
REMARK INTRA:                  -0.274
REMARK UNBOUND:                -0.345
REMARK  Name = CNP0130524_0.pdb
REMARK  1 active torsions:
REMARK  status: ('A' for Active; 'I' for Inactive)
REMARK    1  A    between atoms: N1_7  and  C5_8
REMARK                            x       y       z     vdW  Elec       q    Type
REMARK                         _______ _______ _______ _____ _____    ______ ____
ROOT
ATOM      1  O1  UNL     1      26.457  35.381  41.230  0.00  0.00    +0.000 OA
ATOM      2  C1  UNL     1      25.517  34.556  41.077  0.00  0.00    +0.000 A 
ATOM      3  O2  UNL     1      24.432  34.940  40.421  0.00  0.00    +0.000 OA
ATOM      4  C2  UNL     1      23.387  34.147  40.205  0.00  0.00    +0.000 A 
ATOM      5  C3  UNL     1      22.280  34.654  39.499  0.00  0.00    +0.000 A 
ATOM      6  C4  UNL     1      22.280  36.076  38.987  0.00  0.00    +0.000 C 
ATOM      7  N1  UNL     1      20.932  36.497  38.592  0.00  0.00    +0.000 N 
ATOM      8  C11 UNL     1      20.108  35.550  37.840  0.00  0.00    +0.000 C 
ATOM      9  O3  UNL     1      20.081  34.297  38.514  0.00  0.00    +0.000 OA
ATOM     10  C12 UNL     1      21.181  33.819  39.235  0.00  0.00    +0.000 A 
ATOM     11  C13 UNL     1      21.170  32.509  39.707  0.00  0.00    +0.000 A 
ATOM     12  C14 UNL     1      22.256  32.003  40.422  0.00  0.00    +0.000 A 
ATOM     13  C15 UNL     1      23.388  32.809  40.682  0.00  0.00    +0.000 A 
ATOM     14  C16 UNL     1      24.532  32.353  41.394  0.00  0.00    +0.000 A 
ATOM     15  C17 UNL     1      24.647  31.042  41.918  0.00  0.00    +0.000 A 
ATOM     16  C18 UNL     1      25.793  30.645  42.608  0.00  0.00    +0.000 A 
ATOM     17  C19 UNL     1      26.846  31.537  42.795  0.00  0.00    +0.000 A 
ATOM     18  C20 UNL     1      26.762  32.832  42.290  0.00  0.00    +0.000 A 
ATOM     19  C21 UNL     1      25.614  33.251  41.590  0.00  0.00    +0.000 A 
ENDROOT
BRANCH   7  20
ATOM     20  C5  UNL     1      20.598  37.893  38.573  0.00  0.00    +0.000 A 
ATOM     21  C6  UNL     1      19.876  38.457  39.639  0.00  0.00    +0.000 A 
ATOM     22  C7  UNL     1      19.553  39.816  39.630  0.00  0.00    +0.000 A 
ATOM     23  C8  UNL     1      19.945  40.622  38.559  0.00  0.00    +0.000 A 
ATOM     24  C9  UNL     1      20.657  40.069  37.491  0.00  0.00    +0.000 A 
ATOM     25  C10 UNL     1      20.985  38.707  37.492  0.00  0.00    +0.000 A 
ATOM     26 CL1  UNL     1      21.840  38.036  36.110  0.00  0.00    +0.000 Cl
ENDBRANCH   7  20
TORSDOF 1
ENDMDL
MODEL 6
REMARK VINA RESULT:    -6.547      2.502      3.923
REMARK INTER + INTRA:          -7.275
REMARK INTER:                  -7.033
REMARK INTRA:                  -0.242
REMARK UNBOUND:                -0.345
REMARK  Name = CNP0130524_0.pdb
REMARK  1 active torsions:
REMARK  status: ('A' for Active; 'I' for Inactive)
REMARK    1  A    between atoms: N1_7  and  C5_8
REMARK                            x       y       z     vdW  Elec       q    Type
REMARK                         _______ _______ _______ _____ _____    ______ ____
ROOT
ATOM      1  O1  UNL     1      19.926  37.040  33.442  0.00  0.00    +0.000 OA
ATOM      2  C1  UNL     1      19.845  37.551  34.591  0.00  0.00    +0.000 A 
ATOM      3  O2  UNL     1      20.071  36.784  35.647  0.00  0.00    +0.000 OA
ATOM      4  C2  UNL     1      20.012  37.225  36.899  0.00  0.00    +0.000 A 
ATOM      5  C3  UNL     1      20.268  36.326  37.953  0.00  0.00    +0.000 A 
ATOM      6  C4  UNL     1      20.612  34.883  37.665  0.00  0.00    +0.000 C 
ATOM      7  N1  UNL     1      20.505  34.063  38.876  0.00  0.00    +0.000 N 
ATOM      8  C11 UNL     1      21.036  34.607  40.126  0.00  0.00    +0.000 C 
ATOM      9  O3  UNL     1      20.514  35.913  40.341  0.00  0.00    +0.000 OA
ATOM     10  C12 UNL     1      20.240  36.784  39.281  0.00  0.00    +0.000 A 
ATOM     11  C13 UNL     1      19.919  38.112  39.555  0.00  0.00    +0.000 A 
ATOM     12  C14 UNL     1      19.648  39.005  38.518  0.00  0.00    +0.000 A 
ATOM     13  C15 UNL     1      19.694  38.582  37.170  0.00  0.00    +0.000 A 
ATOM     14  C16 UNL     1      19.439  39.443  36.067  0.00  0.00    +0.000 A 
ATOM     15  C17 UNL     1      19.110  40.814  36.212  0.00  0.00    +0.000 A 
ATOM     16  C18 UNL     1      18.872  41.615  35.095  0.00  0.00    +0.000 A 
ATOM     17  C19 UNL     1      18.952  41.077  33.813  0.00  0.00    +0.000 A 
ATOM     18  C20 UNL     1      19.274  39.733  33.639  0.00  0.00    +0.000 A 
ATOM     19  C21 UNL     1      19.519  38.908  34.754  0.00  0.00    +0.000 A 
ENDROOT
BRANCH   7  20
ATOM     20  C5  UNL     1      20.278  32.649  38.761  0.00  0.00    +0.000 A 
ATOM     21  C6  UNL     1      18.969  32.142  38.799  0.00  0.00    +0.000 A 
ATOM     22  C7  UNL     1      18.741  30.768  38.681  0.00  0.00    +0.000 A 
ATOM     23  C8  UNL     1      19.817  29.892  38.528  0.00  0.00    +0.000 A 
ATOM     24  C9  UNL     1      21.124  30.385  38.496  0.00  0.00    +0.000 A 
ATOM     25  C10 UNL     1      21.361  31.761  38.613  0.00  0.00    +0.000 A 
ATOM     26 CL1  UNL     1      23.020  32.342  38.618  0.00  0.00    +0.000 Cl
ENDBRANCH   7  20
TORSDOF 1
ENDMDL
MODEL 7
REMARK VINA RESULT:    -6.424      3.587      5.955
REMARK INTER + INTRA:          -7.145
REMARK INTER:                  -6.776
REMARK INTRA:                  -0.369
REMARK UNBOUND:                -0.345
REMARK  Name = CNP0130524_0.pdb
REMARK  1 active torsions:
REMARK  status: ('A' for Active; 'I' for Inactive)
REMARK    1  A    between atoms: N1_7  and  C5_8
REMARK                            x       y       z     vdW  Elec       q    Type
REMARK                         _______ _______ _______ _____ _____    ______ ____
ROOT
ATOM      1  O1  UNL     1      19.737  37.855  34.613  0.00  0.00    +0.000 OA
ATOM      2  C1  UNL     1      19.852  37.438  35.798  0.00  0.00    +0.000 A 
ATOM      3  O2  UNL     1      19.929  36.133  36.009  0.00  0.00    +0.000 OA
ATOM      4  C2  UNL     1      20.052  35.593  37.217  0.00  0.00    +0.000 A 
ATOM      5  C3  UNL     1      20.122  34.191  37.334  0.00  0.00    +0.000 A 
ATOM      6  C4  UNL     1      20.066  33.314  36.105  0.00  0.00    +0.000 C 
ATOM      7  N1  UNL     1      19.815  31.914  36.465  0.00  0.00    +0.000 N 
ATOM      8  C11 UNL     1      20.534  31.359  37.612  0.00  0.00    +0.000 C 
ATOM      9  O3  UNL     1      20.380  32.217  38.737  0.00  0.00    +0.000 OA
ATOM     10  C12 UNL     1      20.285  33.606  38.601  0.00  0.00    +0.000 A 
ATOM     11  C13 UNL     1      20.333  34.407  39.739  0.00  0.00    +0.000 A 
ATOM     12  C14 UNL     1      20.247  35.796  39.634  0.00  0.00    +0.000 A 
ATOM     13  C15 UNL     1      20.110  36.417  38.372  0.00  0.00    +0.000 A 
ATOM     14  C16 UNL     1      20.029  37.826  38.193  0.00  0.00    +0.000 A 
ATOM     15  C17 UNL     1      20.073  38.747  39.268  0.00  0.00    +0.000 A 
ATOM     16  C18 UNL     1      19.991  40.121  39.037  0.00  0.00    +0.000 A 
ATOM     17  C19 UNL     1      19.861  40.610  37.740  0.00  0.00    +0.000 A 
ATOM     18  C20 UNL     1      19.815  39.728  36.663  0.00  0.00    +0.000 A 
ATOM     19  C21 UNL     1      19.897  38.338  36.875  0.00  0.00    +0.000 A 
ENDROOT
BRANCH   7  20
ATOM     20  C5  UNL     1      19.225  31.026  35.504  0.00  0.00    +0.000 A 
ATOM     21  C6  UNL     1      19.969  30.602  34.390  0.00  0.00    +0.000 A 
ATOM     22  C7  UNL     1      19.403  29.733  33.453  0.00  0.00    +0.000 A 
ATOM     23  C8  UNL     1      18.093  29.282  33.620  0.00  0.00    +0.000 A 
ATOM     24  C9  UNL     1      17.342  29.702  34.721  0.00  0.00    +0.000 A 
ATOM     25  C10 UNL     1      17.901  30.574  35.665  0.00  0.00    +0.000 A 
ATOM     26 CL1  UNL     1      16.912  31.121  37.012  0.00  0.00    +0.000 Cl
ENDBRANCH   7  20
TORSDOF 1
ENDMDL
MODEL 8
REMARK VINA RESULT:    -6.363      2.854      8.121
REMARK INTER + INTRA:          -7.080
REMARK INTER:                  -6.739
REMARK INTRA:                  -0.341
REMARK UNBOUND:                -0.345
REMARK  Name = CNP0130524_0.pdb
REMARK  1 active torsions:
REMARK  status: ('A' for Active; 'I' for Inactive)
REMARK    1  A    between atoms: N1_7  and  C5_8
REMARK                            x       y       z     vdW  Elec       q    Type
REMARK                         _______ _______ _______ _____ _____    ______ ____
ROOT
ATOM      1  O1  UNL     1      27.284  36.188  37.276  0.00  0.00    +0.000 OA
ATOM      2  C1  UNL     1      26.798  35.842  38.387  0.00  0.00    +0.000 A 
ATOM      3  O2  UNL     1      25.499  35.596  38.465  0.00  0.00    +0.000 OA
ATOM      4  C2  UNL     1      24.889  35.225  39.586  0.00  0.00    +0.000 A 
ATOM      5  C3  UNL     1      23.501  34.991  39.563  0.00  0.00    +0.000 A 
ATOM      6  C4  UNL     1      22.716  35.151  38.282  0.00  0.00    +0.000 C 
ATOM      7  N1  UNL     1      21.274  35.194  38.548  0.00  0.00    +0.000 N 
ATOM      8  C11 UNL     1      20.724  34.246  39.517  0.00  0.00    +0.000 C 
ATOM      9  O3  UNL     1      21.473  34.307  40.726  0.00  0.00    +0.000 OA
ATOM     10  C12 UNL     1      22.847  34.568  40.733  0.00  0.00    +0.000 A 
ATOM     11  C13 UNL     1      23.562  34.422  41.919  0.00  0.00    +0.000 A 
ATOM     12  C14 UNL     1      24.936  34.669  41.955  0.00  0.00    +0.000 A 
ATOM     13  C15 UNL     1      25.628  35.070  40.789  0.00  0.00    +0.000 A 
ATOM     14  C16 UNL     1      27.026  35.325  40.754  0.00  0.00    +0.000 A 
ATOM     15  C17 UNL     1      27.865  35.206  41.889  0.00  0.00    +0.000 A 
ATOM     16  C18 UNL     1      29.233  35.468  41.799  0.00  0.00    +0.000 A 
ATOM     17  C19 UNL     1      29.797  35.854  40.585  0.00  0.00    +0.000 A 
ATOM     18  C20 UNL     1      28.997  35.979  39.452  0.00  0.00    +0.000 A 
ATOM     19  C21 UNL     1      27.615  35.719  39.523  0.00  0.00    +0.000 A 
ENDROOT
BRANCH   7  20
ATOM     20  C5  UNL     1      20.395  35.833  37.609  0.00  0.00    +0.000 A 
ATOM     21  C6  UNL     1      20.267  35.325  36.306  0.00  0.00    +0.000 A 
ATOM     22  C7  UNL     1      19.410  35.938  35.390  0.00  0.00    +0.000 A 
ATOM     23  C8  UNL     1      18.675  37.065  35.766  0.00  0.00    +0.000 A 
ATOM     24  C9  UNL     1      18.800  37.583  37.058  0.00  0.00    +0.000 A 
ATOM     25  C10 UNL     1      19.657  36.974  37.982  0.00  0.00    +0.000 A 
ATOM     26 CL1  UNL     1      19.826  37.681  39.583  0.00  0.00    +0.000 Cl
ENDBRANCH   7  20
TORSDOF 1
ENDMDL
MODEL 9
REMARK VINA RESULT:    -6.323      4.294      6.498
REMARK INTER + INTRA:          -7.038
REMARK INTER:                  -6.764
REMARK INTRA:                  -0.274
REMARK UNBOUND:                -0.345
REMARK  Name = CNP0130524_0.pdb
REMARK  1 active torsions:
REMARK  status: ('A' for Active; 'I' for Inactive)
REMARK    1  A    between atoms: N1_7  and  C5_8
REMARK                            x       y       z     vdW  Elec       q    Type
REMARK                         _______ _______ _______ _____ _____    ______ ____
ROOT
ATOM      1  O1  UNL     1      16.289  43.557  33.503  0.00  0.00    +0.000 OA
ATOM      2  C1  UNL     1      17.496  43.427  33.162  0.00  0.00    +0.000 A 
ATOM      3  O2  UNL     1      18.223  42.485  33.743  0.00  0.00    +0.000 OA
ATOM      4  C2  UNL     1      19.502  42.265  33.456  0.00  0.00    +0.000 A 
ATOM      5  C3  UNL     1      20.188  41.239  34.134  0.00  0.00    +0.000 A 
ATOM      6  C4  UNL     1      19.480  40.396  35.169  0.00  0.00    +0.000 C 
ATOM      7  N1  UNL     1      20.439  39.636  35.978  0.00  0.00    +0.000 N 
ATOM      8  C11 UNL     1      21.562  38.995  35.293  0.00  0.00    +0.000 C 
ATOM      9  O3  UNL     1      22.224  39.944  34.464  0.00  0.00    +0.000 OA
ATOM     10  C12 UNL     1      21.531  40.973  33.819  0.00  0.00    +0.000 A 
ATOM     11  C13 UNL     1      22.192  41.749  32.870  0.00  0.00    +0.000 A 
ATOM     12  C14 UNL     1      21.525  42.779  32.205  0.00  0.00    +0.000 A 
ATOM     13  C15 UNL     1      20.166  43.054  32.480  0.00  0.00    +0.000 A 
ATOM     14  C16 UNL     1      19.425  44.080  31.831  0.00  0.00    +0.000 A 
ATOM     15  C17 UNL     1      19.979  44.932  30.843  0.00  0.00    +0.000 A 
ATOM     16  C18 UNL     1      19.206  45.922  30.236  0.00  0.00    +0.000 A 
ATOM     17  C19 UNL     1      17.871  46.091  30.594  0.00  0.00    +0.000 A 
ATOM     18  C20 UNL     1      17.298  45.268  31.561  0.00  0.00    +0.000 A 
ATOM     19  C21 UNL     1      18.062  44.263  32.185  0.00  0.00    +0.000 A 
ENDROOT
BRANCH   7  20
ATOM     20  C5  UNL     1      20.070  39.196  37.294  0.00  0.00    +0.000 A 
ATOM     21  C6  UNL     1      20.505  39.910  38.422  0.00  0.00    +0.000 A 
ATOM     22  C7  UNL     1      20.145  39.491  39.705  0.00  0.00    +0.000 A 
ATOM     23  C8  UNL     1      19.350  38.355  39.872  0.00  0.00    +0.000 A 
ATOM     24  C9  UNL     1      18.917  37.633  38.757  0.00  0.00    +0.000 A 
ATOM     25  C10 UNL     1      19.275  38.047  37.467  0.00  0.00    +0.000 A 
ATOM     26 CL1  UNL     1      18.753  37.087  36.089  0.00  0.00    +0.000 Cl
ENDBRANCH   7  20
TORSDOF 1
ENDMDL
MODEL 10
REMARK VINA RESULT:    -6.247      2.595      3.407
REMARK INTER + INTRA:          -6.957
REMARK INTER:                  -6.602
REMARK INTRA:                  -0.355
REMARK UNBOUND:                -0.345
REMARK  Name = CNP0130524_0.pdb
REMARK  1 active torsions:
REMARK  status: ('A' for Active; 'I' for Inactive)
REMARK    1  A    between atoms: N1_7  and  C5_8
REMARK                            x       y       z     vdW  Elec       q    Type
REMARK                         _______ _______ _______ _____ _____    ______ ____
ROOT
ATOM      1  O1  UNL     1      23.119  38.230  34.269  0.00  0.00    +0.000 OA
ATOM      2  C1  UNL     1      22.261  38.419  35.173  0.00  0.00    +0.000 A 
ATOM      3  O2  UNL     1      22.202  37.565  36.184  0.00  0.00    +0.000 OA
ATOM      4  C2  UNL     1      21.336  37.675  37.186  0.00  0.00    +0.000 A 
ATOM      5  C3  UNL     1      21.354  36.712  38.213  0.00  0.00    +0.000 A 
ATOM      6  C4  UNL     1      22.347  35.573  38.181  0.00  0.00    +0.000 C 
ATOM      7  N1  UNL     1      21.979  34.523  39.136  0.00  0.00    +0.000 N 
ATOM      8  C11 UNL     1      21.518  34.929  40.464  0.00  0.00    +0.000 C 
ATOM      9  O3  UNL     1      20.484  35.898  40.337  0.00  0.00    +0.000 OA
ATOM     10  C12 UNL     1      20.466  36.831  39.296  0.00  0.00    +0.000 A 
ATOM     11  C13 UNL     1      19.544  37.874  39.330  0.00  0.00    +0.000 A 
ATOM     12  C14 UNL     1      19.508  38.824  38.308  0.00  0.00    +0.000 A 
ATOM     13  C15 UNL     1      20.406  38.747  37.219  0.00  0.00    +0.000 A 
ATOM     14  C16 UNL     1      20.430  39.688  36.152  0.00  0.00    +0.000 A 
ATOM     15  C17 UNL     1      19.550  40.796  36.075  0.00  0.00    +0.000 A 
ATOM     16  C18 UNL     1      19.618  41.690  35.005  0.00  0.00    +0.000 A 
ATOM     17  C19 UNL     1      20.554  41.505  33.992  0.00  0.00    +0.000 A 
ATOM     18  C20 UNL     1      21.432  40.425  34.041  0.00  0.00    +0.000 A 
ATOM     19  C21 UNL     1      21.380  39.512  35.112  0.00  0.00    +0.000 A 
ENDROOT
BRANCH   7  20
ATOM     20  C5  UNL     1      22.440  33.178  38.929  0.00  0.00    +0.000 A 
ATOM     21  C6  UNL     1      23.810  32.883  39.027  0.00  0.00    +0.000 A 
ATOM     22  C7  UNL     1      24.265  31.576  38.833  0.00  0.00    +0.000 A 
ATOM     23  C8  UNL     1      23.358  30.556  38.539  0.00  0.00    +0.000 A 
ATOM     24  C9  UNL     1      21.994  30.841  38.432  0.00  0.00    +0.000 A 
ATOM     25  C10 UNL     1      21.529  32.148  38.625  0.00  0.00    +0.000 A 
ATOM     26 CL1  UNL     1      19.813  32.479  38.436  0.00  0.00    +0.000 Cl
ENDBRANCH   7  20
TORSDOF 1
ENDMDL
