MODEL 1
REMARK VINA RESULT:    -7.119      0.000      0.000
REMARK INTER + INTRA:          -9.072
REMARK INTER:                  -8.368
REMARK INTRA:                  -0.704
REMARK UNBOUND:                -0.704
REMARK  Name = CNP0176716_3.pdb
REMARK  10 active torsions:
REMARK  status: ('A' for Active; 'I' for Inactive)
REMARK    1  A    between atoms: C1_1  and  C2_2
REMARK    2  A    between atoms: C2_2  and  O2_4
REMARK    3  A    between atoms: O2_4  and  C3_5
REMARK    4  A    between atoms: C8_10  and  C9_11
REMARK    5  A    between atoms: C13_16  and  C14_17
REMARK    6  A    between atoms: C13_16  and  C15_18
REMARK    7  A    between atoms: C18_21  and  O4_22
REMARK    8  A    between atoms: C19_23  and  C20_24
REMARK    9  A    between atoms: C23_28  and  O6_29
REMARK   10  A    between atoms: C26_34  and  C27_35
REMARK                            x       y       z     vdW  Elec       q    Type
REMARK                         _______ _______ _______ _____ _____    ______ ____
ROOT
ATOM      1  C3  UNL     1      57.250  53.657  67.888  0.00  0.00    +0.000 C 
ATOM      2  C4  UNL     1      57.773  55.030  68.329  0.00  0.00    +0.000 A 
ATOM      3  C5  UNL     1      57.749  55.444  69.694  0.00  0.00    +0.000 A 
ATOM      4  C6  UNL     1      57.167  54.583  70.788  0.00  0.00    +0.000 C 
ATOM      5  C7  UNL     1      56.734  55.351  72.077  0.00  0.00    +0.000 C 
ATOM      6  C8  UNL     1      56.235  54.379  73.264  0.00  0.00    +0.000 C 
ATOM      7  C9  UNL     1      55.826  52.980  72.706  0.00  0.00    +0.000 C 
ATOM      8  C10 UNL     1      54.979  54.906  73.937  0.00  0.00    +0.000 C 
ATOM      9  C11 UNL     1      54.585  54.398  75.116  0.00  0.00    +0.000 C 
ATOM     10  C12 UNL     1      55.428  53.421  75.857  0.00  0.00    +0.000 C 
ATOM     11  O3  UNL     1      54.890  52.712  76.750  0.00  0.00    +0.000 OA
ATOM     12  C13 UNL     1      56.935  53.323  75.609  0.00  0.00    +0.000 C 
ATOM     13  C14 UNL     1      57.374  51.856  75.373  0.00  0.00    +0.000 C 
ATOM     14  C15 UNL     1      57.635  53.802  76.908  0.00  0.00    +0.000 C 
ATOM     15  C16 UNL     1      57.309  54.282  74.414  0.00  0.00    +0.000 C 
ATOM     16  C17 UNL     1      58.722  54.194  73.838  0.00  0.00    +0.000 C 
ATOM     17  C18 UNL     1      59.106  55.530  73.144  0.00  0.00    +0.000 C 
ATOM     18  C19 UNL     1      57.892  56.323  72.507  0.00  0.00    +0.000 C 
ATOM     19  C20 UNL     1      57.341  57.424  73.453  0.00  0.00    +0.000 C 
ATOM     20  O5  UNL     1      58.375  57.073  71.384  0.00  0.00    +0.000 OA
ATOM     21  C21 UNL     1      58.324  56.666  70.052  0.00  0.00    +0.000 A 
ATOM     22  C22 UNL     1      58.850  57.512  69.081  0.00  0.00    +0.000 A 
ATOM     23  C23 UNL     1      58.792  57.177  67.731  0.00  0.00    +0.000 A 
ATOM     24  C24 UNL     1      58.183  55.962  67.339  0.00  0.00    +0.000 A 
ATOM     25  C25 UNL     1      57.892  55.639  65.921  0.00  0.00    +0.000 C 
ATOM     26  O7  UNL     1      57.793  56.539  65.048  0.00  0.00    +0.000 OA
ATOM     27  O8  UNL     1      57.599  54.323  65.567  0.00  0.00    +0.000 OA
ATOM     28  C26 UNL     1      57.777  53.252  66.487  0.00  0.00    +0.000 C 
ATOM     29  C27 UNL     1      59.255  52.838  66.509  0.00  0.00    +0.000 C 
ENDROOT
BRANCH  17  30
ATOM     30  O4  UNL     1      60.076  55.240  72.166  0.00  0.00    +0.000 OA
ATOM     31  H23 UNL     1      60.924  55.038  72.644  0.00  0.00    +0.000 HD
ENDBRANCH  17  30
BRANCH  23  32
ATOM     32  O6  UNL     1      59.378  58.061  66.822  0.00  0.00    +0.000 OA
ATOM     33  H28 UNL     1      58.916  58.388  65.984  0.00  0.00    +0.000 HD
ENDBRANCH  23  32
BRANCH   1  34
ATOM     34  O2  UNL     1      57.615  52.649  68.834  0.00  0.00    +0.000 OA
BRANCH  34  36
ATOM     35  C1  UNL     1      55.406  51.564  69.244  0.00  0.00    +0.000 C 
ATOM     36  C2  UNL     1      56.880  51.477  69.044  0.00  0.00    +0.000 C 
ATOM     37  O1  UNL     1      57.446  50.352  69.059  0.00  0.00    +0.000 OA
ENDBRANCH  34  36
ENDBRANCH   1  34
TORSDOF 4
ENDMDL
MODEL 2
REMARK VINA RESULT:    -7.090      3.958      7.648
REMARK INTER + INTRA:          -9.038
REMARK INTER:                  -8.331
REMARK INTRA:                  -0.706
REMARK UNBOUND:                -0.704
REMARK  Name = CNP0176716_3.pdb
REMARK  10 active torsions:
REMARK  status: ('A' for Active; 'I' for Inactive)
REMARK    1  A    between atoms: C1_1  and  C2_2
REMARK    2  A    between atoms: C2_2  and  O2_4
REMARK    3  A    between atoms: O2_4  and  C3_5
REMARK    4  A    between atoms: C8_10  and  C9_11
REMARK    5  A    between atoms: C13_16  and  C14_17
REMARK    6  A    between atoms: C13_16  and  C15_18
REMARK    7  A    between atoms: C18_21  and  O4_22
REMARK    8  A    between atoms: C19_23  and  C20_24
REMARK    9  A    between atoms: C23_28  and  O6_29
REMARK   10  A    between atoms: C26_34  and  C27_35
REMARK                            x       y       z     vdW  Elec       q    Type
REMARK                         _______ _______ _______ _____ _____    ______ ____
ROOT
ATOM      1  C3  UNL     1      61.934  55.280  70.766  0.00  0.00    +0.000 C 
ATOM      2  C4  UNL     1      61.140  56.392  70.069  0.00  0.00    +0.000 A 
ATOM      3  C5  UNL     1      60.378  56.149  68.888  0.00  0.00    +0.000 A 
ATOM      4  C6  UNL     1      60.338  54.797  68.218  0.00  0.00    +0.000 C 
ATOM      5  C7  UNL     1      59.927  54.815  66.712  0.00  0.00    +0.000 C 
ATOM      6  C8  UNL     1      59.776  53.342  66.071  0.00  0.00    +0.000 C 
ATOM      7  C9  UNL     1      60.541  52.282  66.923  0.00  0.00    +0.000 C 
ATOM      8  C10 UNL     1      60.409  53.256  64.692  0.00  0.00    +0.000 C 
ATOM      9  C11 UNL     1      60.135  52.213  63.892  0.00  0.00    +0.000 C 
ATOM     10  C12 UNL     1      59.112  51.201  64.265  0.00  0.00    +0.000 C 
ATOM     11  O3  UNL     1      59.131  50.079  63.688  0.00  0.00    +0.000 OA
ATOM     12  C13 UNL     1      58.001  51.525  65.266  0.00  0.00    +0.000 C 
ATOM     13  C14 UNL     1      57.890  50.432  66.359  0.00  0.00    +0.000 C 
ATOM     14  C15 UNL     1      56.666  51.511  64.475  0.00  0.00    +0.000 C 
ATOM     15  C16 UNL     1      58.261  52.965  65.853  0.00  0.00    +0.000 C 
ATOM     16  C17 UNL     1      57.407  53.424  67.036  0.00  0.00    +0.000 C 
ATOM     17  C18 UNL     1      57.353  54.975  67.092  0.00  0.00    +0.000 C 
ATOM     18  C19 UNL     1      58.645  55.707  66.541  0.00  0.00    +0.000 C 
ATOM     19  C20 UNL     1      58.492  56.145  65.058  0.00  0.00    +0.000 C 
ATOM     20  O5  UNL     1      58.793  56.955  67.233  0.00  0.00    +0.000 OA
ATOM     21  C21 UNL     1      59.599  57.175  68.348  0.00  0.00    +0.000 A 
ATOM     22  C22 UNL     1      59.620  58.448  68.909  0.00  0.00    +0.000 A 
ATOM     23  C23 UNL     1      60.435  58.739  69.999  0.00  0.00    +0.000 A 
ATOM     24  C24 UNL     1      61.261  57.726  70.542  0.00  0.00    +0.000 A 
ATOM     25  C25 UNL     1      62.307  58.009  71.555  0.00  0.00    +0.000 C 
ATOM     26  O7  UNL     1      62.789  59.162  71.697  0.00  0.00    +0.000 OA
ATOM     27  O8  UNL     1      62.856  56.955  72.282  0.00  0.00    +0.000 OA
ATOM     28  C26 UNL     1      62.296  55.648  72.228  0.00  0.00    +0.000 C 
ATOM     29  C27 UNL     1      61.089  55.570  73.173  0.00  0.00    +0.000 C 
ENDROOT
BRANCH  17  30
ATOM     30  O4  UNL     1      57.105  55.346  68.427  0.00  0.00    +0.000 OA
ATOM     31  H23 UNL     1      57.100  54.512  68.968  0.00  0.00    +0.000 HD
ENDBRANCH  17  30
BRANCH  23  32
ATOM     32  O6  UNL     1      60.369  60.029  70.528  0.00  0.00    +0.000 OA
ATOM     33  H28 UNL     1      59.876  60.791  70.082  0.00  0.00    +0.000 HD
ENDBRANCH  23  32
BRANCH   1  34
ATOM     34  O2  UNL     1      61.198  54.055  70.761  0.00  0.00    +0.000 OA
BRANCH  34  36
ATOM     35  C1  UNL     1      62.911  52.477  69.861  0.00  0.00    +0.000 C 
ATOM     36  C2  UNL     1      61.795  52.789  70.800  0.00  0.00    +0.000 C 
ATOM     37  O1  UNL     1      61.408  51.915  71.620  0.00  0.00    +0.000 OA
ENDBRANCH  34  36
ENDBRANCH   1  34
TORSDOF 4
ENDMDL
MODEL 3
REMARK VINA RESULT:    -7.081      3.582      8.345
REMARK INTER + INTRA:          -9.027
REMARK INTER:                  -8.395
REMARK INTRA:                  -0.632
REMARK UNBOUND:                -0.704
REMARK  Name = CNP0176716_3.pdb
REMARK  10 active torsions:
REMARK  status: ('A' for Active; 'I' for Inactive)
REMARK    1  A    between atoms: C1_1  and  C2_2
REMARK    2  A    between atoms: C2_2  and  O2_4
REMARK    3  A    between atoms: O2_4  and  C3_5
REMARK    4  A    between atoms: C8_10  and  C9_11
REMARK    5  A    between atoms: C13_16  and  C14_17
REMARK    6  A    between atoms: C13_16  and  C15_18
REMARK    7  A    between atoms: C18_21  and  O4_22
REMARK    8  A    between atoms: C19_23  and  C20_24
REMARK    9  A    between atoms: C23_28  and  O6_29
REMARK   10  A    between atoms: C26_34  and  C27_35
REMARK                            x       y       z     vdW  Elec       q    Type
REMARK                         _______ _______ _______ _____ _____    ______ ____
ROOT
ATOM      1  C3  UNL     1      62.771  53.494  75.489  0.00  0.00    +0.000 C 
ATOM      2  C4  UNL     1      61.384  53.444  76.143  0.00  0.00    +0.000 A 
ATOM      3  C5  UNL     1      60.201  53.807  75.433  0.00  0.00    +0.000 A 
ATOM      4  C6  UNL     1      60.237  54.309  74.010  0.00  0.00    +0.000 C 
ATOM      5  C7  UNL     1      58.992  55.143  73.570  0.00  0.00    +0.000 C 
ATOM      6  C8  UNL     1      59.015  55.552  72.008  0.00  0.00    +0.000 C 
ATOM      7  C9  UNL     1      60.462  55.466  71.430  0.00  0.00    +0.000 C 
ATOM      8  C10 UNL     1      58.600  56.997  71.796  0.00  0.00    +0.000 C 
ATOM      9  C11 UNL     1      58.282  57.431  70.565  0.00  0.00    +0.000 C 
ATOM     10  C12 UNL     1      58.188  56.491  69.416  0.00  0.00    +0.000 C 
ATOM     11  O3  UNL     1      58.240  56.958  68.246  0.00  0.00    +0.000 OA
ATOM     12  C13 UNL     1      57.950  54.994  69.630  0.00  0.00    +0.000 C 
ATOM     13  C14 UNL     1      58.964  54.141  68.828  0.00  0.00    +0.000 C 
ATOM     14  C15 UNL     1      56.541  54.678  69.060  0.00  0.00    +0.000 C 
ATOM     15  C16 UNL     1      57.980  54.699  71.179  0.00  0.00    +0.000 C 
ATOM     16  C17 UNL     1      57.983  53.239  71.633  0.00  0.00    +0.000 C 
ATOM     17  C18 UNL     1      57.421  53.122  73.076  0.00  0.00    +0.000 C 
ATOM     18  C19 UNL     1      57.687  54.381  73.999  0.00  0.00    +0.000 C 
ATOM     19  C20 UNL     1      56.482  55.361  74.028  0.00  0.00    +0.000 C 
ATOM     20  O5  UNL     1      57.777  53.938  75.361  0.00  0.00    +0.000 OA
ATOM     21  C21 UNL     1      58.956  53.654  76.047  0.00  0.00    +0.000 A 
ATOM     22  C22 UNL     1      58.866  53.221  77.366  0.00  0.00    +0.000 A 
ATOM     23  C23 UNL     1      60.010  52.960  78.115  0.00  0.00    +0.000 A 
ATOM     24  C24 UNL     1      61.285  53.142  77.527  0.00  0.00    +0.000 A 
ATOM     25  C25 UNL     1      62.539  53.093  78.317  0.00  0.00    +0.000 C 
ATOM     26  O7  UNL     1      62.542  53.284  79.560  0.00  0.00    +0.000 OA
ATOM     27  O8  UNL     1      63.757  52.955  77.655  0.00  0.00    +0.000 OA
ATOM     28  C26 UNL     1      63.814  52.649  76.266  0.00  0.00    +0.000 C 
ATOM     29  C27 UNL     1      63.620  51.140  76.066  0.00  0.00    +0.000 C 
ENDROOT
BRANCH  17  30
ATOM     30  O4  UNL     1      57.967  51.960  73.654  0.00  0.00    +0.000 OA
ATOM     31  H23 UNL     1      58.953  52.079  73.679  0.00  0.00    +0.000 HD
ENDBRANCH  17  30
BRANCH  23  32
ATOM     32  O6  UNL     1      59.835  52.492  79.419  0.00  0.00    +0.000 OA
ATOM     33  H28 UNL     1      60.601  52.252  80.034  0.00  0.00    +0.000 HD
ENDBRANCH  23  32
BRANCH   1  34
ATOM     34  O2  UNL     1      62.709  53.032  74.138  0.00  0.00    +0.000 OA
BRANCH  34  36
ATOM     35  C1  UNL     1      64.087  54.918  73.257  0.00  0.00    +0.000 C 
ATOM     36  C2  UNL     1      63.479  53.566  73.098  0.00  0.00    +0.000 C 
ATOM     37  O1  UNL     1      63.670  52.919  72.035  0.00  0.00    +0.000 OA
ENDBRANCH  34  36
ENDBRANCH   1  34
TORSDOF 4
ENDMDL
MODEL 4
REMARK VINA RESULT:    -6.747      4.019      7.184
REMARK INTER + INTRA:          -8.635
REMARK INTER:                  -8.182
REMARK INTRA:                  -0.453
REMARK UNBOUND:                -0.704
REMARK  Name = CNP0176716_3.pdb
REMARK  10 active torsions:
REMARK  status: ('A' for Active; 'I' for Inactive)
REMARK    1  A    between atoms: C1_1  and  C2_2
REMARK    2  A    between atoms: C2_2  and  O2_4
REMARK    3  A    between atoms: O2_4  and  C3_5
REMARK    4  A    between atoms: C8_10  and  C9_11
REMARK    5  A    between atoms: C13_16  and  C14_17
REMARK    6  A    between atoms: C13_16  and  C15_18
REMARK    7  A    between atoms: C18_21  and  O4_22
REMARK    8  A    between atoms: C19_23  and  C20_24
REMARK    9  A    between atoms: C23_28  and  O6_29
REMARK   10  A    between atoms: C26_34  and  C27_35
REMARK                            x       y       z     vdW  Elec       q    Type
REMARK                         _______ _______ _______ _____ _____    ______ ____
ROOT
ATOM      1  C3  UNL     1      61.738  57.157  70.800  0.00  0.00    +0.000 C 
ATOM      2  C4  UNL     1      60.480  56.773  70.012  0.00  0.00    +0.000 A 
ATOM      3  C5  UNL     1      60.248  55.438  69.564  0.00  0.00    +0.000 A 
ATOM      4  C6  UNL     1      61.241  54.326  69.794  0.00  0.00    +0.000 C 
ATOM      5  C7  UNL     1      61.111  53.110  68.823  0.00  0.00    +0.000 C 
ATOM      6  C8  UNL     1      62.109  51.894  69.183  0.00  0.00    +0.000 C 
ATOM      7  C9  UNL     1      63.293  52.388  70.072  0.00  0.00    +0.000 C 
ATOM      8  C10 UNL     1      62.773  51.320  67.943  0.00  0.00    +0.000 C 
ATOM      9  C11 UNL     1      63.401  50.134  68.005  0.00  0.00    +0.000 C 
ATOM     10  C12 UNL     1      63.345  49.294  69.231  0.00  0.00    +0.000 C 
ATOM     11  O3  UNL     1      64.209  48.388  69.385  0.00  0.00    +0.000 OA
ATOM     12  C13 UNL     1      62.219  49.457  70.256  0.00  0.00    +0.000 C 
ATOM     13  C14 UNL     1      62.781  49.581  71.695  0.00  0.00    +0.000 C 
ATOM     14  C15 UNL     1      61.378  48.154  70.209  0.00  0.00    +0.000 C 
ATOM     15  C16 UNL     1      61.328  50.686  69.830  0.00  0.00    +0.000 C 
ATOM     16  C17 UNL     1      60.270  51.182  70.815  0.00  0.00    +0.000 C 
ATOM     17  C18 UNL     1      59.140  51.934  70.059  0.00  0.00    +0.000 C 
ATOM     18  C19 UNL     1      59.602  52.680  68.740  0.00  0.00    +0.000 C 
ATOM     19  C20 UNL     1      59.358  51.831  67.462  0.00  0.00    +0.000 C 
ATOM     20  O5  UNL     1      58.755  53.820  68.539  0.00  0.00    +0.000 OA
ATOM     21  C21 UNL     1      59.042  55.125  68.932  0.00  0.00    +0.000 A 
ATOM     22  C22 UNL     1      58.101  56.117  68.670  0.00  0.00    +0.000 A 
ATOM     23  C23 UNL     1      58.349  57.446  69.004  0.00  0.00    +0.000 A 
ATOM     24  C24 UNL     1      59.578  57.795  69.612  0.00  0.00    +0.000 A 
ATOM     25  C25 UNL     1      60.001  59.204  69.798  0.00  0.00    +0.000 C 
ATOM     26  O7  UNL     1      59.519  60.133  69.101  0.00  0.00    +0.000 OA
ATOM     27  O8  UNL     1      61.043  59.493  70.677  0.00  0.00    +0.000 OA
ATOM     28  C26 UNL     1      61.568  58.502  71.554  0.00  0.00    +0.000 C 
ATOM     29  C27 UNL     1      60.663  58.379  72.787  0.00  0.00    +0.000 C 
ENDROOT
BRANCH  17  30
ATOM     30  O4  UNL     1      58.553  52.841  70.961  0.00  0.00    +0.000 OA
ATOM     31  H23 UNL     1      59.072  53.687  70.908  0.00  0.00    +0.000 HD
ENDBRANCH  17  30
BRANCH  23  32
ATOM     32  O6  UNL     1      57.339  58.374  68.744  0.00  0.00    +0.000 OA
ATOM     33  H28 UNL     1      57.516  59.316  68.419  0.00  0.00    +0.000 HD
ENDBRANCH  23  32
BRANCH   1  34
ATOM     34  O2  UNL     1      62.077  56.135  71.740  0.00  0.00    +0.000 OA
BRANCH  34  36
ATOM     35  C1  UNL     1      63.706  54.693  72.964  0.00  0.00    +0.000 C 
ATOM     36  C2  UNL     1      63.355  55.974  72.286  0.00  0.00    +0.000 C 
ATOM     37  O1  UNL     1      64.215  56.891  72.205  0.00  0.00    +0.000 OA
ENDBRANCH  34  36
ENDBRANCH   1  34
TORSDOF 4
ENDMDL
MODEL 5
REMARK VINA RESULT:    -6.605      3.945      9.596
REMARK INTER + INTRA:          -8.467
REMARK INTER:                  -7.764
REMARK INTRA:                  -0.704
REMARK UNBOUND:                -0.704
REMARK  Name = CNP0176716_3.pdb
REMARK  10 active torsions:
REMARK  status: ('A' for Active; 'I' for Inactive)
REMARK    1  A    between atoms: C1_1  and  C2_2
REMARK    2  A    between atoms: C2_2  and  O2_4
REMARK    3  A    between atoms: O2_4  and  C3_5
REMARK    4  A    between atoms: C8_10  and  C9_11
REMARK    5  A    between atoms: C13_16  and  C14_17
REMARK    6  A    between atoms: C13_16  and  C15_18
REMARK    7  A    between atoms: C18_21  and  O4_22
REMARK    8  A    between atoms: C19_23  and  C20_24
REMARK    9  A    between atoms: C23_28  and  O6_29
REMARK   10  A    between atoms: C26_34  and  C27_35
REMARK                            x       y       z     vdW  Elec       q    Type
REMARK                         _______ _______ _______ _____ _____    ______ ____
ROOT
ATOM      1  C3  UNL     1      60.926  53.536  78.943  0.00  0.00    +0.000 C 
ATOM      2  C4  UNL     1      59.602  54.092  79.481  0.00  0.00    +0.000 A 
ATOM      3  C5  UNL     1      58.443  54.213  78.656  0.00  0.00    +0.000 A 
ATOM      4  C6  UNL     1      58.454  53.848  77.192  0.00  0.00    +0.000 C 
ATOM      5  C7  UNL     1      57.330  54.513  76.335  0.00  0.00    +0.000 C 
ATOM      6  C8  UNL     1      57.303  53.998  74.806  0.00  0.00    +0.000 C 
ATOM      7  C9  UNL     1      58.670  53.360  74.406  0.00  0.00    +0.000 C 
ATOM      8  C10 UNL     1      57.112  55.143  73.826  0.00  0.00    +0.000 C 
ATOM      9  C11 UNL     1      56.777  54.888  72.551  0.00  0.00    +0.000 C 
ATOM     10  C12 UNL     1      56.447  53.509  72.101  0.00  0.00    +0.000 C 
ATOM     11  O3  UNL     1      56.487  53.249  70.867  0.00  0.00    +0.000 OA
ATOM     12  C13 UNL     1      55.988  52.437  73.092  0.00  0.00    +0.000 C 
ATOM     13  C14 UNL     1      56.790  51.123  72.913  0.00  0.00    +0.000 C 
ATOM     14  C15 UNL     1      54.509  52.115  72.751  0.00  0.00    +0.000 C 
ATOM     15  C16 UNL     1      56.085  53.029  74.550  0.00  0.00    +0.000 C 
ATOM     16  C17 UNL     1      55.887  52.075  75.728  0.00  0.00    +0.000 C 
ATOM     17  C18 UNL     1      55.422  52.860  76.985  0.00  0.00    +0.000 C 
ATOM     18  C19 UNL     1      55.955  54.348  77.077  0.00  0.00    +0.000 C 
ATOM     19  C20 UNL     1      54.929  55.380  76.534  0.00  0.00    +0.000 C 
ATOM     20  O5  UNL     1      56.073  54.707  78.461  0.00  0.00    +0.000 OA
ATOM     21  C21 UNL     1      57.238  54.638  79.221  0.00  0.00    +0.000 A 
ATOM     22  C22 UNL     1      57.178  55.014  80.560  0.00  0.00    +0.000 A 
ATOM     23  C23 UNL     1      58.318  55.004  81.359  0.00  0.00    +0.000 A 
ATOM     24  C24 UNL     1      59.558  54.612  80.802  0.00  0.00    +0.000 A 
ATOM     25  C25 UNL     1      60.843  54.780  81.522  0.00  0.00    +0.000 C 
ATOM     26  O7  UNL     1      60.968  55.611  82.458  0.00  0.00    +0.000 OA
ATOM     27  O8  UNL     1      61.971  54.094  81.076  0.00  0.00    +0.000 OA
ATOM     28  C26 UNL     1      61.874  53.080  80.082  0.00  0.00    +0.000 C 
ATOM     29  C27 UNL     1      61.426  51.765  80.734  0.00  0.00    +0.000 C 
ENDROOT
BRANCH  17  30
ATOM     30  O4  UNL     1      55.815  52.122  78.118  0.00  0.00    +0.000 OA
ATOM     31  H23 UNL     1      54.991  51.915  78.634  0.00  0.00    +0.000 HD
ENDBRANCH  17  30
BRANCH  23  32
ATOM     32  O6  UNL     1      58.167  55.357  82.702  0.00  0.00    +0.000 OA
ATOM     33  H28 UNL     1      58.931  55.378  83.363  0.00  0.00    +0.000 HD
ENDBRANCH  23  32
BRANCH   1  34
ATOM     34  O2  UNL     1      60.691  52.434  78.062  0.00  0.00    +0.000 OA
BRANCH  34  36
ATOM     35  C1  UNL     1      62.058  53.131  76.094  0.00  0.00    +0.000 C 
ATOM     36  C2  UNL     1      61.551  52.077  77.018  0.00  0.00    +0.000 C 
ATOM     37  O1  UNL     1      61.908  50.880  76.854  0.00  0.00    +0.000 OA
ENDBRANCH  34  36
ENDBRANCH   1  34
TORSDOF 4
ENDMDL
MODEL 6
REMARK VINA RESULT:    -6.548      4.622      9.296
REMARK INTER + INTRA:          -8.400
REMARK INTER:                  -7.782
REMARK INTRA:                  -0.618
REMARK UNBOUND:                -0.704
REMARK  Name = CNP0176716_3.pdb
REMARK  10 active torsions:
REMARK  status: ('A' for Active; 'I' for Inactive)
REMARK    1  A    between atoms: C1_1  and  C2_2
REMARK    2  A    between atoms: C2_2  and  O2_4
REMARK    3  A    between atoms: O2_4  and  C3_5
REMARK    4  A    between atoms: C8_10  and  C9_11
REMARK    5  A    between atoms: C13_16  and  C14_17
REMARK    6  A    between atoms: C13_16  and  C15_18
REMARK    7  A    between atoms: C18_21  and  O4_22
REMARK    8  A    between atoms: C19_23  and  C20_24
REMARK    9  A    between atoms: C23_28  and  O6_29
REMARK   10  A    between atoms: C26_34  and  C27_35
REMARK                            x       y       z     vdW  Elec       q    Type
REMARK                         _______ _______ _______ _____ _____    ______ ____
ROOT
ATOM      1  C3  UNL     1      60.827  52.073  77.731  0.00  0.00    +0.000 C 
ATOM      2  C4  UNL     1      62.075  51.784  76.886  0.00  0.00    +0.000 A 
ATOM      3  C5  UNL     1      62.233  52.311  75.569  0.00  0.00    +0.000 A 
ATOM      4  C6  UNL     1      61.169  53.147  74.901  0.00  0.00    +0.000 C 
ATOM      5  C7  UNL     1      61.243  53.192  73.342  0.00  0.00    +0.000 C 
ATOM      6  C8  UNL     1      60.166  54.194  72.679  0.00  0.00    +0.000 C 
ATOM      7  C9  UNL     1      58.999  54.494  73.670  0.00  0.00    +0.000 C 
ATOM      8  C10 UNL     1      59.493  53.578  71.465  0.00  0.00    +0.000 C 
ATOM      9  C11 UNL     1      58.792  54.353  70.620  0.00  0.00    +0.000 C 
ATOM     10  C12 UNL     1      58.774  55.833  70.765  0.00  0.00    +0.000 C 
ATOM     11  O3  UNL     1      57.853  56.485  70.202  0.00  0.00    +0.000 OA
ATOM     12  C13 UNL     1      59.887  56.573  71.511  0.00  0.00    +0.000 C 
ATOM     13  C14 UNL     1      59.308  57.563  72.551  0.00  0.00    +0.000 C 
ATOM     14  C15 UNL     1      60.648  57.419  70.455  0.00  0.00    +0.000 C 
ATOM     15  C16 UNL     1      60.859  55.506  72.145  0.00  0.00    +0.000 C 
ATOM     16  C17 UNL     1      61.928  55.998  73.122  0.00  0.00    +0.000 C 
ATOM     17  C18 UNL     1      63.115  54.998  73.171  0.00  0.00    +0.000 C 
ATOM     18  C19 UNL     1      62.725  53.486  72.908  0.00  0.00    +0.000 C 
ATOM     19  C20 UNL     1      62.941  53.066  71.428  0.00  0.00    +0.000 C 
ATOM     20  O5  UNL     1      63.644  52.646  73.620  0.00  0.00    +0.000 OA
ATOM     21  C21 UNL     1      63.430  52.093  74.881  0.00  0.00    +0.000 A 
ATOM     22  C22 UNL     1      64.433  51.307  75.438  0.00  0.00    +0.000 A 
ATOM     23  C23 UNL     1      64.262  50.696  76.677  0.00  0.00    +0.000 A 
ATOM     24  C24 UNL     1      63.045  50.871  77.379  0.00  0.00    +0.000 A 
ATOM     25  C25 UNL     1      62.705  50.086  78.590  0.00  0.00    +0.000 C 
ATOM     26  O7  UNL     1      63.256  48.982  78.835  0.00  0.00    +0.000 OA
ATOM     27  O8  UNL     1      61.666  50.517  79.413  0.00  0.00    +0.000 OA
ATOM     28  C26 UNL     1      61.065  51.795  79.238  0.00  0.00    +0.000 C 
ATOM     29  C27 UNL     1      61.937  52.867  79.906  0.00  0.00    +0.000 C 
ENDROOT
BRANCH  17  30
ATOM     30  O4  UNL     1      63.739  55.137  74.425  0.00  0.00    +0.000 OA
ATOM     31  H23 UNL     1      64.627  54.696  74.362  0.00  0.00    +0.000 HD
ENDBRANCH  17  30
BRANCH  23  32
ATOM     32  O6  UNL     1      65.331  49.955  77.185  0.00  0.00    +0.000 OA
ATOM     33  H28 UNL     1      65.994  50.320  77.856  0.00  0.00    +0.000 HD
ENDBRANCH  23  32
BRANCH   1  34
ATOM     34  O2  UNL     1      60.409  53.430  77.566  0.00  0.00    +0.000 OA
BRANCH  34  36
ATOM     35  C1  UNL     1      57.996  53.610  76.954  0.00  0.00    +0.000 C 
ATOM     36  C2  UNL     1      59.127  53.892  77.883  0.00  0.00    +0.000 C 
ATOM     37  O1  UNL     1      58.915  54.536  78.945  0.00  0.00    +0.000 OA
ENDBRANCH  34  36
ENDBRANCH   1  34
TORSDOF 4
ENDMDL
MODEL 7
REMARK VINA RESULT:    -6.545      3.463      5.986
REMARK INTER + INTRA:          -8.397
REMARK INTER:                  -7.710
REMARK INTRA:                  -0.687
REMARK UNBOUND:                -0.704
REMARK  Name = CNP0176716_3.pdb
REMARK  10 active torsions:
REMARK  status: ('A' for Active; 'I' for Inactive)
REMARK    1  A    between atoms: C1_1  and  C2_2
REMARK    2  A    between atoms: C2_2  and  O2_4
REMARK    3  A    between atoms: O2_4  and  C3_5
REMARK    4  A    between atoms: C8_10  and  C9_11
REMARK    5  A    between atoms: C13_16  and  C14_17
REMARK    6  A    between atoms: C13_16  and  C15_18
REMARK    7  A    between atoms: C18_21  and  O4_22
REMARK    8  A    between atoms: C19_23  and  C20_24
REMARK    9  A    between atoms: C23_28  and  O6_29
REMARK   10  A    between atoms: C26_34  and  C27_35
REMARK                            x       y       z     vdW  Elec       q    Type
REMARK                         _______ _______ _______ _____ _____    ______ ____
ROOT
ATOM      1  C3  UNL     1      60.453  57.046  69.313  0.00  0.00    +0.000 C 
ATOM      2  C4  UNL     1      59.767  55.737  68.904  0.00  0.00    +0.000 A 
ATOM      3  C5  UNL     1      59.998  54.513  69.602  0.00  0.00    +0.000 A 
ATOM      4  C6  UNL     1      60.964  54.414  70.757  0.00  0.00    +0.000 C 
ATOM      5  C7  UNL     1      61.496  52.976  71.054  0.00  0.00    +0.000 C 
ATOM      6  C8  UNL     1      62.425  52.896  72.371  0.00  0.00    +0.000 C 
ATOM      7  C9  UNL     1      62.982  54.305  72.747  0.00  0.00    +0.000 C 
ATOM      8  C10 UNL     1      63.661  52.043  72.141  0.00  0.00    +0.000 C 
ATOM      9  C11 UNL     1      64.393  51.626  73.187  0.00  0.00    +0.000 C 
ATOM     10  C12 UNL     1      63.946  51.862  74.586  0.00  0.00    +0.000 C 
ATOM     11  O3  UNL     1      64.796  51.784  75.515  0.00  0.00    +0.000 OA
ATOM     12  C13 UNL     1      62.473  52.113  74.918  0.00  0.00    +0.000 C 
ATOM     13  C14 UNL     1      62.303  53.363  75.817  0.00  0.00    +0.000 C 
ATOM     14  C15 UNL     1      61.984  50.892  75.742  0.00  0.00    +0.000 C 
ATOM     15  C16 UNL     1      61.665  52.206  73.568  0.00  0.00    +0.000 C 
ATOM     16  C17 UNL     1      60.209  52.670  73.632  0.00  0.00    +0.000 C 
ATOM     17  C18 UNL     1      59.422  52.148  72.399  0.00  0.00    +0.000 C 
ATOM     18  C19 UNL     1      60.283  51.976  71.081  0.00  0.00    +0.000 C 
ATOM     19  C20 UNL     1      60.787  50.520  70.887  0.00  0.00    +0.000 C 
ATOM     20  O5  UNL     1      59.428  52.178  69.947  0.00  0.00    +0.000 OA
ATOM     21  C21 UNL     1      59.275  53.371  69.246  0.00  0.00    +0.000 A 
ATOM     22  C22 UNL     1      58.392  53.400  68.171  0.00  0.00    +0.000 A 
ATOM     23  C23 UNL     1      58.227  54.553  67.409  0.00  0.00    +0.000 A 
ATOM     24  C24 UNL     1      58.973  55.712  67.727  0.00  0.00    +0.000 A 
ATOM     25  C25 UNL     1      59.015  56.900  66.840  0.00  0.00    +0.000 C 
ATOM     26  O7  UNL     1      58.738  56.817  65.615  0.00  0.00    +0.000 OA
ATOM     27  O8  UNL     1      59.487  58.111  67.342  0.00  0.00    +0.000 OA
ATOM     28  C26 UNL     1      59.732  58.290  68.733  0.00  0.00    +0.000 C 
ATOM     29  C27 UNL     1      58.410  58.595  69.450  0.00  0.00    +0.000 C 
ENDROOT
BRANCH  17  30
ATOM     30  O4  UNL     1      58.345  53.026  72.177  0.00  0.00    +0.000 OA
ATOM     31  H23 UNL     1      58.730  53.928  72.014  0.00  0.00    +0.000 HD
ENDBRANCH  17  30
BRANCH  23  32
ATOM     32  O6  UNL     1      57.293  54.512  66.372  0.00  0.00    +0.000 OA
ATOM     33  H28 UNL     1      56.297  54.412  66.521  0.00  0.00    +0.000 HD
ENDBRANCH  23  32
BRANCH   1  34
ATOM     34  O2  UNL     1      60.512  57.162  70.737  0.00  0.00    +0.000 OA
BRANCH  34  36
ATOM     35  C1  UNL     1      62.879  57.689  71.330  0.00  0.00    +0.000 C 
ATOM     36  C2  UNL     1      61.420  57.985  71.413  0.00  0.00    +0.000 C 
ATOM     37  O1  UNL     1      61.022  58.975  72.082  0.00  0.00    +0.000 OA
ENDBRANCH  34  36
ENDBRANCH   1  34
TORSDOF 4
ENDMDL
MODEL 8
REMARK VINA RESULT:    -6.505      3.608      8.537
REMARK INTER + INTRA:          -8.350
REMARK INTER:                  -7.745
REMARK INTRA:                  -0.604
REMARK UNBOUND:                -0.704
REMARK  Name = CNP0176716_3.pdb
REMARK  10 active torsions:
REMARK  status: ('A' for Active; 'I' for Inactive)
REMARK    1  A    between atoms: C1_1  and  C2_2
REMARK    2  A    between atoms: C2_2  and  O2_4
REMARK    3  A    between atoms: O2_4  and  C3_5
REMARK    4  A    between atoms: C8_10  and  C9_11
REMARK    5  A    between atoms: C13_16  and  C14_17
REMARK    6  A    between atoms: C13_16  and  C15_18
REMARK    7  A    between atoms: C18_21  and  O4_22
REMARK    8  A    between atoms: C19_23  and  C20_24
REMARK    9  A    between atoms: C23_28  and  O6_29
REMARK   10  A    between atoms: C26_34  and  C27_35
REMARK                            x       y       z     vdW  Elec       q    Type
REMARK                         _______ _______ _______ _____ _____    ______ ____
ROOT
ATOM      1  C3  UNL     1      59.526  52.872  76.683  0.00  0.00    +0.000 C 
ATOM      2  C4  UNL     1      60.996  53.088  76.299  0.00  0.00    +0.000 A 
ATOM      3  C5  UNL     1      61.380  53.514  74.992  0.00  0.00    +0.000 A 
ATOM      4  C6  UNL     1      60.375  53.735  73.888  0.00  0.00    +0.000 C 
ATOM      5  C7  UNL     1      60.956  53.672  72.440  0.00  0.00    +0.000 C 
ATOM      6  C8  UNL     1      59.875  54.037  71.299  0.00  0.00    +0.000 C 
ATOM      7  C9  UNL     1      58.419  53.877  71.839  0.00  0.00    +0.000 C 
ATOM      8  C10 UNL     1      59.954  53.084  70.119  0.00  0.00    +0.000 C 
ATOM      9  C11 UNL     1      59.344  53.395  68.963  0.00  0.00    +0.000 C 
ATOM     10  C12 UNL     1      58.705  54.723  68.760  0.00  0.00    +0.000 C 
ATOM     11  O3  UNL     1      57.859  54.852  67.834  0.00  0.00    +0.000 OA
ATOM     12  C13 UNL     1      59.115  55.939  69.594  0.00  0.00    +0.000 C 
ATOM     13  C14 UNL     1      57.879  56.660  70.185  0.00  0.00    +0.000 C 
ATOM     14  C15 UNL     1      59.802  56.937  68.624  0.00  0.00    +0.000 C 
ATOM     15  C16 UNL     1      60.143  55.468  70.694  0.00  0.00    +0.000 C 
ATOM     16  C17 UNL     1      60.531  56.462  71.788  0.00  0.00    +0.000 C 
ATOM     17  C18 UNL     1      61.917  56.095  72.384  0.00  0.00    +0.000 C 
ATOM     18  C19 UNL     1      62.259  54.548  72.372  0.00  0.00    +0.000 C 
ATOM     19  C20 UNL     1      63.115  54.139  71.142  0.00  0.00    +0.000 C 
ATOM     20  O5  UNL     1      63.126  54.264  73.479  0.00  0.00    +0.000 OA
ATOM     21  C21 UNL     1      62.724  53.786  74.724  0.00  0.00    +0.000 A 
ATOM     22  C22 UNL     1      63.696  53.572  75.697  0.00  0.00    +0.000 A 
ATOM     23  C23 UNL     1      63.360  53.059  76.947  0.00  0.00    +0.000 A 
ATOM     24  C24 UNL     1      62.010  52.741  77.230  0.00  0.00    +0.000 A 
ATOM     25  C25 UNL     1      61.607  51.996  78.448  0.00  0.00    +0.000 C 
ATOM     26  O7  UNL     1      62.422  51.273  79.076  0.00  0.00    +0.000 OA
ATOM     27  O8  UNL     1      60.269  51.996  78.836  0.00  0.00    +0.000 OA
ATOM     28  C26 UNL     1      59.320  52.859  78.219  0.00  0.00    +0.000 C 
ATOM     29  C27 UNL     1      59.422  54.258  78.841  0.00  0.00    +0.000 C 
ENDROOT
BRANCH  17  30
ATOM     30  O4  UNL     1      61.967  56.603  73.696  0.00  0.00    +0.000 OA
ATOM     31  H23 UNL     1      61.665  57.549  73.656  0.00  0.00    +0.000 HD
ENDBRANCH  17  30
BRANCH  23  32
ATOM     32  O6  UNL     1      64.387  52.911  77.881  0.00  0.00    +0.000 OA
ATOM     33  H28 UNL     1      65.367  53.018  77.655  0.00  0.00    +0.000 HD
ENDBRANCH  23  32
BRANCH   1  34
ATOM     34  O2  UNL     1      58.700  53.887  76.108  0.00  0.00    +0.000 OA
BRANCH  34  36
ATOM     35  C1  UNL     1      56.361  54.682  76.464  0.00  0.00    +0.000 C 
ATOM     36  C2  UNL     1      57.332  53.726  75.860  0.00  0.00    +0.000 C 
ATOM     37  O1  UNL     1      56.912  52.790  75.128  0.00  0.00    +0.000 OA
ENDBRANCH  34  36
ENDBRANCH   1  34
TORSDOF 4
ENDMDL
MODEL 9
REMARK VINA RESULT:    -6.389      3.716      8.811
REMARK INTER + INTRA:          -8.213
REMARK INTER:                  -7.514
REMARK INTRA:                  -0.699
REMARK UNBOUND:                -0.704
REMARK  Name = CNP0176716_3.pdb
REMARK  10 active torsions:
REMARK  status: ('A' for Active; 'I' for Inactive)
REMARK    1  A    between atoms: C1_1  and  C2_2
REMARK    2  A    between atoms: C2_2  and  O2_4
REMARK    3  A    between atoms: O2_4  and  C3_5
REMARK    4  A    between atoms: C8_10  and  C9_11
REMARK    5  A    between atoms: C13_16  and  C14_17
REMARK    6  A    between atoms: C13_16  and  C15_18
REMARK    7  A    between atoms: C18_21  and  O4_22
REMARK    8  A    between atoms: C19_23  and  C20_24
REMARK    9  A    between atoms: C23_28  and  O6_29
REMARK   10  A    between atoms: C26_34  and  C27_35
REMARK                            x       y       z     vdW  Elec       q    Type
REMARK                         _______ _______ _______ _____ _____    ______ ____
ROOT
ATOM      1  C3  UNL     1      62.224  53.138  76.969  0.00  0.00    +0.000 C 
ATOM      2  C4  UNL     1      60.809  53.441  77.476  0.00  0.00    +0.000 A 
ATOM      3  C5  UNL     1      59.738  53.757  76.586  0.00  0.00    +0.000 A 
ATOM      4  C6  UNL     1      59.935  53.860  75.094  0.00  0.00    +0.000 C 
ATOM      5  C7  UNL     1      58.859  54.705  74.340  0.00  0.00    +0.000 C 
ATOM      6  C8  UNL     1      59.037  54.685  72.736  0.00  0.00    +0.000 C 
ATOM      7  C9  UNL     1      60.487  54.265  72.341  0.00  0.00    +0.000 C 
ATOM      8  C10 UNL     1      58.858  56.066  72.130  0.00  0.00    +0.000 C 
ATOM      9  C11 UNL     1      58.683  56.201  70.805  0.00  0.00    +0.000 C 
ATOM     10  C12 UNL     1      58.519  55.014  69.924  0.00  0.00    +0.000 C 
ATOM     11  O3  UNL     1      58.711  55.149  68.685  0.00  0.00    +0.000 OA
ATOM     12  C13 UNL     1      58.046  53.669  70.481  0.00  0.00    +0.000 C 
ATOM     13  C14 UNL     1      58.968  52.512  70.020  0.00  0.00    +0.000 C 
ATOM     14  C15 UNL     1      56.643  53.400  69.874  0.00  0.00    +0.000 C 
ATOM     15  C16 UNL     1      57.938  53.787  72.049  0.00  0.00    +0.000 C 
ATOM     16  C17 UNL     1      57.695  52.509  72.852  0.00  0.00    +0.000 C 
ATOM     17  C18 UNL     1      57.035  52.846  74.217  0.00  0.00    +0.000 C 
ATOM     18  C19 UNL     1      57.430  54.257  74.818  0.00  0.00    +0.000 C 
ATOM     19  C20 UNL     1      56.386  55.358  74.484  0.00  0.00    +0.000 C 
ATOM     20  O5  UNL     1      57.370  54.177  76.249  0.00  0.00    +0.000 OA
ATOM     21  C21 UNL     1      58.449  53.931  77.095  0.00  0.00    +0.000 A 
ATOM     22  C22 UNL     1      58.216  53.874  78.466  0.00  0.00    +0.000 A 
ATOM     23  C23 UNL     1      59.260  53.670  79.363  0.00  0.00    +0.000 A 
ATOM     24  C24 UNL     1      60.581  53.526  78.876  0.00  0.00    +0.000 A 
ATOM     25  C25 UNL     1      61.764  53.523  79.771  0.00  0.00    +0.000 C 
ATOM     26  O7  UNL     1      61.720  54.031  80.921  0.00  0.00    +0.000 OA
ATOM     27  O8  UNL     1      62.985  53.060  79.285  0.00  0.00    +0.000 OA
ATOM     28  C26 UNL     1      63.080  52.398  78.029  0.00  0.00    +0.000 C 
ATOM     29  C27 UNL     1      62.674  50.927  78.194  0.00  0.00    +0.000 C 
ENDROOT
BRANCH  17  30
ATOM     30  O4  UNL     1      57.364  51.815  75.117  0.00  0.00    +0.000 OA
ATOM     31  H23 UNL     1      58.346  51.854  75.263  0.00  0.00    +0.000 HD
ENDBRANCH  17  30
BRANCH  23  32
ATOM     32  O6  UNL     1      58.938  53.586  80.719  0.00  0.00    +0.000 OA
ATOM     33  H28 UNL     1      59.348  54.179  81.429  0.00  0.00    +0.000 HD
ENDBRANCH  23  32
BRANCH   1  34
ATOM     34  O2  UNL     1      62.175  52.352  75.776  0.00  0.00    +0.000 OA
BRANCH  34  36
ATOM     35  C1  UNL     1      63.635  53.699  74.263  0.00  0.00    +0.000 C 
ATOM     36  C2  UNL     1      63.162  52.384  74.783  0.00  0.00    +0.000 C 
ATOM     37  O1  UNL     1      63.659  51.319  74.330  0.00  0.00    +0.000 OA
ENDBRANCH  34  36
ENDBRANCH   1  34
TORSDOF 4
ENDMDL
MODEL 10
REMARK VINA RESULT:    -6.350      3.658      6.269
REMARK INTER + INTRA:          -8.168
REMARK INTER:                  -7.499
REMARK INTRA:                  -0.669
REMARK UNBOUND:                -0.704
REMARK  Name = CNP0176716_3.pdb
REMARK  10 active torsions:
REMARK  status: ('A' for Active; 'I' for Inactive)
REMARK    1  A    between atoms: C1_1  and  C2_2
REMARK    2  A    between atoms: C2_2  and  O2_4
REMARK    3  A    between atoms: O2_4  and  C3_5
REMARK    4  A    between atoms: C8_10  and  C9_11
REMARK    5  A    between atoms: C13_16  and  C14_17
REMARK    6  A    between atoms: C13_16  and  C15_18
REMARK    7  A    between atoms: C18_21  and  O4_22
REMARK    8  A    between atoms: C19_23  and  C20_24
REMARK    9  A    between atoms: C23_28  and  O6_29
REMARK   10  A    between atoms: C26_34  and  C27_35
REMARK                            x       y       z     vdW  Elec       q    Type
REMARK                         _______ _______ _______ _____ _____    ______ ____
ROOT
ATOM      1  C3  UNL     1      61.271  56.024  71.705  0.00  0.00    +0.000 C 
ATOM      2  C4  UNL     1      59.903  55.337  71.799  0.00  0.00    +0.000 A 
ATOM      3  C5  UNL     1      59.626  54.335  72.778  0.00  0.00    +0.000 A 
ATOM      4  C6  UNL     1      60.670  53.852  73.754  0.00  0.00    +0.000 C 
ATOM      5  C7  UNL     1      60.400  52.443  74.370  0.00  0.00    +0.000 C 
ATOM      6  C8  UNL     1      61.473  52.020  75.499  0.00  0.00    +0.000 C 
ATOM      7  C9  UNL     1      62.783  52.858  75.365  0.00  0.00    +0.000 C 
ATOM      8  C10 UNL     1      61.921  50.577  75.342  0.00  0.00    +0.000 C 
ATOM      9  C11 UNL     1      62.578  49.966  76.342  0.00  0.00    +0.000 C 
ATOM     10  C12 UNL     1      62.758  50.623  77.664  0.00  0.00    +0.000 C 
ATOM     11  O3  UNL     1      63.656  50.193  78.437  0.00  0.00    +0.000 OA
ATOM     12  C13 UNL     1      61.827  51.747  78.126  0.00  0.00    +0.000 C 
ATOM     13  C14 UNL     1      62.629  52.968  78.641  0.00  0.00    +0.000 C 
ATOM     14  C15 UNL     1      61.020  51.194  79.331  0.00  0.00    +0.000 C 
ATOM     15  C16 UNL     1      60.846  52.103  76.944  0.00  0.00    +0.000 C 
ATOM     16  C17 UNL     1      59.966  53.345  77.089  0.00  0.00    +0.000 C 
ATOM     17  C18 UNL     1      58.705  53.219  76.192  0.00  0.00    +0.000 C 
ATOM     18  C19 UNL     1      58.910  52.378  74.866  0.00  0.00    +0.000 C 
ATOM     19  C20 UNL     1      58.464  50.898  75.027  0.00  0.00    +0.000 C 
ATOM     20  O5  UNL     1      58.014  52.879  73.864  0.00  0.00    +0.000 OA
ATOM     21  C21 UNL     1      58.335  53.810  72.879  0.00  0.00    +0.000 A 
ATOM     22  C22 UNL     1      57.341  54.200  71.987  0.00  0.00    +0.000 A 
ATOM     23  C23 UNL     1      57.612  55.098  70.958  0.00  0.00    +0.000 A 
ATOM     24  C24 UNL     1      58.921  55.617  70.812  0.00  0.00    +0.000 A 
ATOM     25  C25 UNL     1      59.338  56.401  69.624  0.00  0.00    +0.000 C 
ATOM     26  O7  UNL     1      58.719  56.320  68.532  0.00  0.00    +0.000 OA
ATOM     27  O8  UNL     1      60.511  57.150  69.679  0.00  0.00    +0.000 OA
ATOM     28  C26 UNL     1      61.205  57.350  70.905  0.00  0.00    +0.000 C 
ATOM     29  C27 UNL     1      60.534  58.484  71.694  0.00  0.00    +0.000 C 
ENDROOT
BRANCH  17  30
ATOM     30  O4  UNL     1      58.264  54.521  75.889  0.00  0.00    +0.000 OA
ATOM     31  H23 UNL     1      57.271  54.501  75.879  0.00  0.00    +0.000 HD
ENDBRANCH  17  30
BRANCH  23  32
ATOM     32  O6  UNL     1      56.551  55.469  70.129  0.00  0.00    +0.000 OA
ATOM     33  H28 UNL     1      55.652  55.775  70.477  0.00  0.00    +0.000 HD
ENDBRANCH  23  32
BRANCH   1  34
ATOM     34  O2  UNL     1      61.793  56.290  73.009  0.00  0.00    +0.000 OA
BRANCH  34  36
ATOM     35  C1  UNL     1      64.022  55.178  72.842  0.00  0.00    +0.000 C 
ATOM     36  C2  UNL     1      63.159  56.300  73.312  0.00  0.00    +0.000 C 
ATOM     37  O1  UNL     1      63.670  57.246  73.969  0.00  0.00    +0.000 OA
ENDBRANCH  34  36
ENDBRANCH   1  34
TORSDOF 4
ENDMDL
