MODEL 1
REMARK VINA RESULT:    -8.160      0.000      0.000
REMARK INTER + INTRA:         -12.425
REMARK INTER:                 -10.545
REMARK INTRA:                  -1.879
REMARK UNBOUND:                -1.879
REMARK  Name = CNP0040680_2.pdb
REMARK  7 active torsions:
REMARK  status: ('A' for Active; 'I' for Inactive)
REMARK    1  A    between atoms: C1_1  and  C2_2
REMARK    2  A    between atoms: C5_5  and  N1_6
REMARK    3  A    between atoms: C10_12  and  C11_13
REMARK    4  A    between atoms: C11_13  and  O3_15
REMARK    5  A    between atoms: O3_15  and  C12_16
REMARK    6  A    between atoms: N2_29  and  C23_30
REMARK    7  A    between atoms: C26_33  and  C27_34
REMARK                            x       y       z     vdW  Elec       q    Type
REMARK                         _______ _______ _______ _____ _____    ______ ____
ROOT
ATOM      1  N1  UNL     1      59.418  53.873  78.001  0.00  0.00    +0.000 N 
ATOM      2  C6  UNL     1      58.092  54.173  77.515  0.00  0.00    +0.000 C 
ATOM      3  O1  UNL     1      57.126  54.537  78.236  0.00  0.00    +0.000 OA
ATOM      4  C7  UNL     1      58.149  54.260  76.038  0.00  0.00    +0.000 C 
ATOM      5  C8  UNL     1      57.076  54.248  74.896  0.00  0.00    +0.000 C 
ATOM      6  C9  UNL     1      56.937  52.804  74.367  0.00  0.00    +0.000 C 
ATOM      7  C10 UNL     1      58.086  52.263  73.841  0.00  0.00    +0.000 C 
ATOM      8  C18 UNL     1      59.381  53.045  74.170  0.00  0.00    +0.000 C 
ATOM      9  C19 UNL     1      59.225  53.180  75.739  0.00  0.00    +0.000 C 
ATOM     10  C20 UNL     1      60.173  53.456  76.844  0.00  0.00    +0.000 C 
ATOM     11  O4  UNL     1      61.396  53.155  76.854  0.00  0.00    +0.000 OA
ATOM     12  C21 UNL     1      59.245  54.495  73.587  0.00  0.00    +0.000 C 
ATOM     13  C22 UNL     1      59.654  55.140  72.319  0.00  0.00    +0.000 C 
ATOM     14  O5  UNL     1      60.611  54.779  71.582  0.00  0.00    +0.000 OA
ATOM     15  N2  UNL     1      58.940  56.389  72.195  0.00  0.00    +0.000 N 
ATOM     16  C30 UNL     1      57.884  56.331  73.176  0.00  0.00    +0.000 C 
ATOM     17  O6  UNL     1      57.075  57.265  73.420  0.00  0.00    +0.000 OA
ATOM     18  C31 UNL     1      57.754  54.930  73.640  0.00  0.00    +0.000 C 
ENDROOT
BRANCH   1  23
ATOM     19  C1  UNL     1      61.357  54.652  83.364  0.00  0.00    +0.000 C 
ATOM     20  C2  UNL     1      60.860  54.435  81.965  0.00  0.00    +0.000 A 
ATOM     21  C3  UNL     1      61.684  53.859  80.988  0.00  0.00    +0.000 A 
ATOM     22  C4  UNL     1      61.210  53.671  79.687  0.00  0.00    +0.000 A 
ATOM     23  C5  UNL     1      59.905  54.059  79.342  0.00  0.00    +0.000 A 
ATOM     24  C32 UNL     1      59.083  54.637  80.322  0.00  0.00    +0.000 A 
ATOM     25  C33 UNL     1      59.556  54.823  81.624  0.00  0.00    +0.000 A 
ENDBRANCH   1  23
BRANCH  15  26
ATOM     26  C23 UNL     1      59.214  57.459  71.275  0.00  0.00    +0.000 A 
ATOM     27  C24 UNL     1      58.352  57.705  70.193  0.00  0.00    +0.000 A 
ATOM     28  C25 UNL     1      58.618  58.743  69.296  0.00  0.00    +0.000 A 
ATOM     29  C26 UNL     1      59.758  59.544  69.459  0.00  0.00    +0.000 A 
ATOM     30  C27 UNL     1      60.029  60.681  68.520  0.00  0.00    +0.000 C 
ATOM     31  C28 UNL     1      60.612  59.311  70.548  0.00  0.00    +0.000 A 
ATOM     32  C29 UNL     1      60.346  58.273  71.445  0.00  0.00    +0.000 A 
ENDBRANCH  15  26
BRANCH   7  33
ATOM     33  C11 UNL     1      58.106  50.983  73.113  0.00  0.00    +0.000 C 
ATOM     34  O2  UNL     1      58.432  49.922  73.714  0.00  0.00    +0.000 OA
BRANCH  33  35
ATOM     35  O3  UNL     1      57.689  50.952  71.775  0.00  0.00    +0.000 OA
BRANCH  35  36
ATOM     36  C12 UNL     1      57.813  52.003  70.853  0.00  0.00    +0.000 A 
ATOM     37  C13 UNL     1      58.945  52.033  70.028  0.00  0.00    +0.000 A 
ATOM     38  C14 UNL     1      59.120  53.066  69.101  0.00  0.00    +0.000 A 
ATOM     39  C15 UNL     1      58.155  54.067  68.980  0.00  0.00    +0.000 A 
ATOM     40  C16 UNL     1      57.009  54.033  69.778  0.00  0.00    +0.000 A 
ATOM     41  C17 UNL     1      56.830  53.000  70.706  0.00  0.00    +0.000 A 
ENDBRANCH  35  36
ENDBRANCH  33  35
ENDBRANCH   7  33
TORSDOF 5
ENDMDL
MODEL 2
REMARK VINA RESULT:    -8.150      1.334      1.573
REMARK INTER + INTRA:         -12.411
REMARK INTER:                 -10.433
REMARK INTRA:                  -1.978
REMARK UNBOUND:                -1.879
REMARK  Name = CNP0040680_2.pdb
REMARK  7 active torsions:
REMARK  status: ('A' for Active; 'I' for Inactive)
REMARK    1  A    between atoms: C1_1  and  C2_2
REMARK    2  A    between atoms: C5_5  and  N1_6
REMARK    3  A    between atoms: C10_12  and  C11_13
REMARK    4  A    between atoms: C11_13  and  O3_15
REMARK    5  A    between atoms: O3_15  and  C12_16
REMARK    6  A    between atoms: N2_29  and  C23_30
REMARK    7  A    between atoms: C26_33  and  C27_34
REMARK                            x       y       z     vdW  Elec       q    Type
REMARK                         _______ _______ _______ _____ _____    ______ ____
ROOT
ATOM      1  N1  UNL     1      60.148  53.562  77.331  0.00  0.00    +0.000 N 
ATOM      2  C6  UNL     1      58.872  53.515  76.656  0.00  0.00    +0.000 C 
ATOM      3  O1  UNL     1      57.754  53.494  77.232  0.00  0.00    +0.000 OA
ATOM      4  C7  UNL     1      59.099  53.782  75.217  0.00  0.00    +0.000 C 
ATOM      5  C8  UNL     1      58.246  53.587  73.917  0.00  0.00    +0.000 C 
ATOM      6  C9  UNL     1      58.630  52.237  73.276  0.00  0.00    +0.000 C 
ATOM      7  C10 UNL     1      59.950  52.119  72.909  0.00  0.00    +0.000 C 
ATOM      8  C18 UNL     1      60.886  53.204  73.498  0.00  0.00    +0.000 C 
ATOM      9  C19 UNL     1      60.485  53.106  75.025  0.00  0.00    +0.000 C 
ATOM     10  C20 UNL     1      61.144  53.520  76.287  0.00  0.00    +0.000 C 
ATOM     11  O4  UNL     1      62.387  53.591  76.476  0.00  0.00    +0.000 OA
ATOM     12  C21 UNL     1      60.391  54.607  73.000  0.00  0.00    +0.000 C 
ATOM     13  C22 UNL     1      60.750  55.484  71.863  0.00  0.00    +0.000 C 
ATOM     14  O5  UNL     1      61.862  55.506  71.269  0.00  0.00    +0.000 OA
ATOM     15  N2  UNL     1      59.711  56.474  71.709  0.00  0.00    +0.000 N 
ATOM     16  C30 UNL     1      58.601  55.998  72.499  0.00  0.00    +0.000 C 
ATOM     17  O6  UNL     1      57.519  56.620  72.670  0.00  0.00    +0.000 OA
ATOM     18  C31 UNL     1      58.845  54.577  72.839  0.00  0.00    +0.000 C 
ENDROOT
BRANCH   1  23
ATOM     19  C1  UNL     1      61.022  54.260  82.976  0.00  0.00    +0.000 C 
ATOM     20  C2  UNL     1      60.802  54.065  81.506  0.00  0.00    +0.000 A 
ATOM     21  C3  UNL     1      61.798  53.499  80.697  0.00  0.00    +0.000 A 
ATOM     22  C4  UNL     1      61.583  53.330  79.326  0.00  0.00    +0.000 A 
ATOM     23  C5  UNL     1      60.368  53.728  78.742  0.00  0.00    +0.000 A 
ATOM     24  C32 UNL     1      59.375  54.296  79.554  0.00  0.00    +0.000 A 
ATOM     25  C33 UNL     1      59.589  54.463  80.926  0.00  0.00    +0.000 A 
ENDBRANCH   1  23
BRANCH  15  26
ATOM     26  C23 UNL     1      59.764  57.675  70.922  0.00  0.00    +0.000 A 
ATOM     27  C24 UNL     1      58.885  57.858  69.841  0.00  0.00    +0.000 A 
ATOM     28  C25 UNL     1      58.937  59.024  69.073  0.00  0.00    +0.000 A 
ATOM     29  C26 UNL     1      59.880  60.020  69.364  0.00  0.00    +0.000 A 
ATOM     30  C27 UNL     1      59.917  61.288  68.564  0.00  0.00    +0.000 C 
ATOM     31  C28 UNL     1      60.749  59.849  70.452  0.00  0.00    +0.000 A 
ATOM     32  C29 UNL     1      60.696  58.683  71.221  0.00  0.00    +0.000 A 
ENDBRANCH  15  26
BRANCH   7  33
ATOM     33  C11 UNL     1      60.460  50.994  72.108  0.00  0.00    +0.000 C 
ATOM     34  O2  UNL     1      60.993  50.003  72.683  0.00  0.00    +0.000 OA
BRANCH  33  35
ATOM     35  O3  UNL     1      60.278  51.006  70.719  0.00  0.00    +0.000 OA
BRANCH  35  36
ATOM     36  C12 UNL     1      60.253  52.149  69.906  0.00  0.00    +0.000 A 
ATOM     37  C13 UNL     1      61.447  52.558  69.298  0.00  0.00    +0.000 A 
ATOM     38  C14 UNL     1      61.478  53.698  68.487  0.00  0.00    +0.000 A 
ATOM     39  C15 UNL     1      60.308  54.427  68.263  0.00  0.00    +0.000 A 
ATOM     40  C16 UNL     1      59.106  54.014  68.842  0.00  0.00    +0.000 A 
ATOM     41  C17 UNL     1      59.072  52.873  69.653  0.00  0.00    +0.000 A 
ENDBRANCH  35  36
ENDBRANCH  33  35
ENDBRANCH   7  33
TORSDOF 5
ENDMDL
MODEL 3
REMARK VINA RESULT:    -8.143      5.192      7.507
REMARK INTER + INTRA:         -12.402
REMARK INTER:                 -11.960
REMARK INTRA:                  -0.442
REMARK UNBOUND:                -1.879
REMARK  Name = CNP0040680_2.pdb
REMARK  7 active torsions:
REMARK  status: ('A' for Active; 'I' for Inactive)
REMARK    1  A    between atoms: C1_1  and  C2_2
REMARK    2  A    between atoms: C5_5  and  N1_6
REMARK    3  A    between atoms: C10_12  and  C11_13
REMARK    4  A    between atoms: C11_13  and  O3_15
REMARK    5  A    between atoms: O3_15  and  C12_16
REMARK    6  A    between atoms: N2_29  and  C23_30
REMARK    7  A    between atoms: C26_33  and  C27_34
REMARK                            x       y       z     vdW  Elec       q    Type
REMARK                         _______ _______ _______ _____ _____    ______ ____
ROOT
ATOM      1  N1  UNL     1      60.804  55.485  70.833  0.00  0.00    +0.000 N 
ATOM      2  C6  UNL     1      59.625  56.255  70.512  0.00  0.00    +0.000 C 
ATOM      3  O1  UNL     1      59.407  57.432  70.903  0.00  0.00    +0.000 OA
ATOM      4  C7  UNL     1      58.887  55.548  69.441  0.00  0.00    +0.000 C 
ATOM      5  C8  UNL     1      57.436  55.650  68.857  0.00  0.00    +0.000 C 
ATOM      6  C9  UNL     1      56.551  54.596  69.558  0.00  0.00    +0.000 C 
ATOM      7  C10 UNL     1      56.956  53.292  69.396  0.00  0.00    +0.000 C 
ATOM      8  C18 UNL     1      58.392  53.125  68.839  0.00  0.00    +0.000 C 
ATOM      9  C19 UNL     1      59.179  54.073  69.831  0.00  0.00    +0.000 C 
ATOM     10  C20 UNL     1      60.604  54.193  70.221  0.00  0.00    +0.000 C 
ATOM     11  O4  UNL     1      61.442  53.253  70.238  0.00  0.00    +0.000 OA
ATOM     12  C21 UNL     1      58.459  53.807  67.429  0.00  0.00    +0.000 C 
ATOM     13  C22 UNL     1      58.294  53.325  66.039  0.00  0.00    +0.000 C 
ATOM     14  O5  UNL     1      58.498  52.147  65.637  0.00  0.00    +0.000 OA
ATOM     15  N2  UNL     1      58.103  54.470  65.181  0.00  0.00    +0.000 N 
ATOM     16  C30 UNL     1      57.815  55.573  66.065  0.00  0.00    +0.000 C 
ATOM     17  O6  UNL     1      57.648  56.766  65.697  0.00  0.00    +0.000 OA
ATOM     18  C31 UNL     1      57.496  55.028  67.404  0.00  0.00    +0.000 C 
ENDROOT
BRANCH   1  23
ATOM     19  C1  UNL     1      65.505  57.361  73.571  0.00  0.00    +0.000 C 
ATOM     20  C2  UNL     1      64.275  56.865  72.871  0.00  0.00    +0.000 A 
ATOM     21  C3  UNL     1      63.748  55.596  73.152  0.00  0.00    +0.000 A 
ATOM     22  C4  UNL     1      62.606  55.144  72.486  0.00  0.00    +0.000 A 
ATOM     23  C5  UNL     1      61.975  55.952  71.525  0.00  0.00    +0.000 A 
ATOM     24  C32 UNL     1      62.506  57.221  71.246  0.00  0.00    +0.000 A 
ATOM     25  C33 UNL     1      63.648  57.674  71.913  0.00  0.00    +0.000 A 
ENDBRANCH   1  23
BRANCH  15  26
ATOM     26  C23 UNL     1      58.170  54.501  63.746  0.00  0.00    +0.000 A 
ATOM     27  C24 UNL     1      57.671  55.604  63.034  0.00  0.00    +0.000 A 
ATOM     28  C25 UNL     1      57.732  55.636  61.638  0.00  0.00    +0.000 A 
ATOM     29  C26 UNL     1      58.281  54.556  60.931  0.00  0.00    +0.000 A 
ATOM     30  C27 UNL     1      58.382  54.600  59.435  0.00  0.00    +0.000 C 
ATOM     31  C28 UNL     1      58.795  53.460  61.639  0.00  0.00    +0.000 A 
ATOM     32  C29 UNL     1      58.734  53.429  63.035  0.00  0.00    +0.000 A 
ENDBRANCH  15  26
BRANCH   7  33
ATOM     33  C11 UNL     1      56.138  52.143  69.816  0.00  0.00    +0.000 C 
ATOM     34  O2  UNL     1      55.591  52.142  70.954  0.00  0.00    +0.000 OA
BRANCH  33  35
ATOM     35  O3  UNL     1      55.918  51.095  68.912  0.00  0.00    +0.000 OA
BRANCH  35  36
ATOM     36  C12 UNL     1      54.786  50.941  68.096  0.00  0.00    +0.000 A 
ATOM     37  C13 UNL     1      54.353  49.642  67.800  0.00  0.00    +0.000 A 
ATOM     38  C14 UNL     1      53.237  49.435  66.981  0.00  0.00    +0.000 A 
ATOM     39  C15 UNL     1      52.535  50.528  66.468  0.00  0.00    +0.000 A 
ATOM     40  C16 UNL     1      52.942  51.828  66.778  0.00  0.00    +0.000 A 
ATOM     41  C17 UNL     1      54.058  52.038  67.598  0.00  0.00    +0.000 A 
ENDBRANCH  35  36
ENDBRANCH  33  35
ENDBRANCH   7  33
TORSDOF 5
ENDMDL
MODEL 4
REMARK VINA RESULT:    -8.080      2.941      9.288
REMARK INTER + INTRA:         -12.321
REMARK INTER:                 -10.603
REMARK INTRA:                  -1.718
REMARK UNBOUND:                -1.879
REMARK  Name = CNP0040680_2.pdb
REMARK  7 active torsions:
REMARK  status: ('A' for Active; 'I' for Inactive)
REMARK    1  A    between atoms: C1_1  and  C2_2
REMARK    2  A    between atoms: C5_5  and  N1_6
REMARK    3  A    between atoms: C10_12  and  C11_13
REMARK    4  A    between atoms: C11_13  and  O3_15
REMARK    5  A    between atoms: O3_15  and  C12_16
REMARK    6  A    between atoms: N2_29  and  C23_30
REMARK    7  A    between atoms: C26_33  and  C27_34
REMARK                            x       y       z     vdW  Elec       q    Type
REMARK                         _______ _______ _______ _____ _____    ______ ____
ROOT
ATOM      1  N1  UNL     1      59.463  54.831  68.556  0.00  0.00    +0.000 N 
ATOM      2  C6  UNL     1      59.481  56.136  69.175  0.00  0.00    +0.000 C 
ATOM      3  O1  UNL     1      59.402  57.228  68.554  0.00  0.00    +0.000 OA
ATOM      4  C7  UNL     1      59.319  55.958  70.636  0.00  0.00    +0.000 C 
ATOM      5  C8  UNL     1      59.548  56.876  71.885  0.00  0.00    +0.000 C 
ATOM      6  C9  UNL     1      60.957  56.593  72.450  0.00  0.00    +0.000 C 
ATOM      7  C10 UNL     1      61.172  55.299  72.861  0.00  0.00    +0.000 C 
ATOM      8  C18 UNL     1      60.107  54.282  72.382  0.00  0.00    +0.000 C 
ATOM      9  C19 UNL     1      60.084  54.620  70.837  0.00  0.00    +0.000 C 
ATOM     10  C20 UNL     1      59.628  53.885  69.633  0.00  0.00    +0.000 C 
ATOM     11  O4  UNL     1      59.616  52.633  69.499  0.00  0.00    +0.000 OA
ATOM     12  C21 UNL     1      58.713  54.721  72.952  0.00  0.00    +0.000 C 
ATOM     13  C22 UNL     1      57.932  54.365  74.158  0.00  0.00    +0.000 C 
ATOM     14  O5  UNL     1      58.011  53.281  74.796  0.00  0.00    +0.000 OA
ATOM     15  N2  UNL     1      56.896  55.355  74.336  0.00  0.00    +0.000 N 
ATOM     16  C30 UNL     1      57.257  56.453  73.473  0.00  0.00    +0.000 C 
ATOM     17  O6  UNL     1      56.565  57.492  73.300  0.00  0.00    +0.000 OA
ATOM     18  C31 UNL     1      58.665  56.271  73.050  0.00  0.00    +0.000 C 
ENDROOT
BRANCH   1  23
ATOM     19  C1  UNL     1      58.464  53.650  63.012  0.00  0.00    +0.000 C 
ATOM     20  C2  UNL     1      58.739  53.962  64.453  0.00  0.00    +0.000 A 
ATOM     21  C3  UNL     1      59.999  53.715  65.017  0.00  0.00    +0.000 A 
ATOM     22  C4  UNL     1      60.239  54.003  66.363  0.00  0.00    +0.000 A 
ATOM     23  C5  UNL     1      59.221  54.541  67.168  0.00  0.00    +0.000 A 
ATOM     24  C32 UNL     1      57.960  54.786  66.601  0.00  0.00    +0.000 A 
ATOM     25  C33 UNL     1      57.721  54.499  65.254  0.00  0.00    +0.000 A 
ENDBRANCH   1  23
BRANCH  15  26
ATOM     26  C23 UNL     1      55.753  55.271  75.202  0.00  0.00    +0.000 A 
ATOM     27  C24 UNL     1      54.551  54.706  74.743  0.00  0.00    +0.000 A 
ATOM     28  C25 UNL     1      53.438  54.625  75.583  0.00  0.00    +0.000 A 
ATOM     29  C26 UNL     1      53.503  55.122  76.893  0.00  0.00    +0.000 A 
ATOM     30  C27 UNL     1      52.322  55.007  77.810  0.00  0.00    +0.000 C 
ATOM     31  C28 UNL     1      54.706  55.673  77.360  0.00  0.00    +0.000 A 
ATOM     32  C29 UNL     1      55.820  55.753  76.520  0.00  0.00    +0.000 A 
ENDBRANCH  15  26
BRANCH   7  33
ATOM     33  C11 UNL     1      62.373  54.886  73.605  0.00  0.00    +0.000 C 
ATOM     34  O2  UNL     1      63.354  55.675  73.707  0.00  0.00    +0.000 OA
BRANCH  33  35
ATOM     35  O3  UNL     1      62.380  53.645  74.256  0.00  0.00    +0.000 OA
BRANCH  35  36
ATOM     36  C12 UNL     1      62.425  53.448  75.645  0.00  0.00    +0.000 A 
ATOM     37  C13 UNL     1      61.221  53.474  76.360  0.00  0.00    +0.000 A 
ATOM     38  C14 UNL     1      61.214  53.295  77.747  0.00  0.00    +0.000 A 
ATOM     39  C15 UNL     1      62.412  53.071  78.429  0.00  0.00    +0.000 A 
ATOM     40  C16 UNL     1      63.617  53.017  77.723  0.00  0.00    +0.000 A 
ATOM     41  C17 UNL     1      63.627  53.195  76.334  0.00  0.00    +0.000 A 
ENDBRANCH  35  36
ENDBRANCH  33  35
ENDBRANCH   7  33
TORSDOF 5
ENDMDL
MODEL 5
REMARK VINA RESULT:    -8.030      3.746      6.244
REMARK INTER + INTRA:         -12.256
REMARK INTER:                  -9.401
REMARK INTRA:                  -2.855
REMARK UNBOUND:                -1.879
REMARK  Name = CNP0040680_2.pdb
REMARK  7 active torsions:
REMARK  status: ('A' for Active; 'I' for Inactive)
REMARK    1  A    between atoms: C1_1  and  C2_2
REMARK    2  A    between atoms: C5_5  and  N1_6
REMARK    3  A    between atoms: C10_12  and  C11_13
REMARK    4  A    between atoms: C11_13  and  O3_15
REMARK    5  A    between atoms: O3_15  and  C12_16
REMARK    6  A    between atoms: N2_29  and  C23_30
REMARK    7  A    between atoms: C26_33  and  C27_34
REMARK                            x       y       z     vdW  Elec       q    Type
REMARK                         _______ _______ _______ _____ _____    ______ ____
ROOT
ATOM      1  N1  UNL     1      63.029  51.840  74.872  0.00  0.00    +0.000 N 
ATOM      2  C6  UNL     1      63.490  51.913  73.505  0.00  0.00    +0.000 C 
ATOM      3  O1  UNL     1      64.413  51.208  73.019  0.00  0.00    +0.000 OA
ATOM      4  C7  UNL     1      62.522  52.723  72.732  0.00  0.00    +0.000 C 
ATOM      5  C8  UNL     1      62.553  53.433  71.335  0.00  0.00    +0.000 C 
ATOM      6  C9  UNL     1      62.954  54.909  71.543  0.00  0.00    +0.000 C 
ATOM      7  C10 UNL     1      62.105  55.638  72.342  0.00  0.00    +0.000 C 
ATOM      8  C18 UNL     1      61.099  54.790  73.160  0.00  0.00    +0.000 C 
ATOM      9  C19 UNL     1      62.093  53.750  73.817  0.00  0.00    +0.000 C 
ATOM     10  C20 UNL     1      62.007  52.852  74.993  0.00  0.00    +0.000 C 
ATOM     11  O4  UNL     1      61.328  53.066  76.032  0.00  0.00    +0.000 OA
ATOM     12  C21 UNL     1      60.207  53.978  72.158  0.00  0.00    +0.000 C 
ATOM     13  C22 UNL     1      58.887  54.209  71.529  0.00  0.00    +0.000 C 
ATOM     14  O5  UNL     1      57.959  54.922  71.999  0.00  0.00    +0.000 OA
ATOM     15  N2  UNL     1      58.746  53.294  70.421  0.00  0.00    +0.000 N 
ATOM     16  C30 UNL     1      60.069  52.773  70.177  0.00  0.00    +0.000 C 
ATOM     17  O6  UNL     1      60.350  51.892  69.322  0.00  0.00    +0.000 OA
ATOM     18  C31 UNL     1      61.045  53.623  70.898  0.00  0.00    +0.000 C 
ENDROOT
BRANCH   1  23
ATOM     19  C1  UNL     1      64.614  48.009  78.864  0.00  0.00    +0.000 C 
ATOM     20  C2  UNL     1      64.216  49.011  77.822  0.00  0.00    +0.000 A 
ATOM     21  C3  UNL     1      64.893  50.234  77.701  0.00  0.00    +0.000 A 
ATOM     22  C4  UNL     1      64.506  51.162  76.730  0.00  0.00    +0.000 A 
ATOM     23  C5  UNL     1      63.434  50.883  75.866  0.00  0.00    +0.000 A 
ATOM     24  C32 UNL     1      62.757  49.660  75.991  0.00  0.00    +0.000 A 
ATOM     25  C33 UNL     1      63.145  48.730  76.961  0.00  0.00    +0.000 A 
ENDBRANCH   1  23
BRANCH  15  26
ATOM     26  C23 UNL     1      57.542  52.979  69.702  0.00  0.00    +0.000 A 
ATOM     27  C24 UNL     1      57.333  53.485  68.408  0.00  0.00    +0.000 A 
ATOM     28  C25 UNL     1      56.162  53.182  67.708  0.00  0.00    +0.000 A 
ATOM     29  C26 UNL     1      55.174  52.380  68.297  0.00  0.00    +0.000 A 
ATOM     30  C27 UNL     1      53.932  52.023  67.536  0.00  0.00    +0.000 C 
ATOM     31  C28 UNL     1      55.386  51.860  69.582  0.00  0.00    +0.000 A 
ATOM     32  C29 UNL     1      56.557  52.162  70.282  0.00  0.00    +0.000 A 
ENDBRANCH  15  26
BRANCH   7  33
ATOM     33  C11 UNL     1      62.207  57.098  72.495  0.00  0.00    +0.000 C 
ATOM     34  O2  UNL     1      62.830  57.585  73.480  0.00  0.00    +0.000 OA
BRANCH  33  35
ATOM     35  O3  UNL     1      61.674  57.928  71.500  0.00  0.00    +0.000 OA
BRANCH  35  36
ATOM     36  C12 UNL     1      60.599  57.610  70.657  0.00  0.00    +0.000 A 
ATOM     37  C13 UNL     1      59.316  58.035  71.027  0.00  0.00    +0.000 A 
ATOM     38  C14 UNL     1      58.209  57.733  70.226  0.00  0.00    +0.000 A 
ATOM     39  C15 UNL     1      58.380  57.019  69.038  0.00  0.00    +0.000 A 
ATOM     40  C16 UNL     1      59.658  56.613  68.646  0.00  0.00    +0.000 A 
ATOM     41  C17 UNL     1      60.768  56.915  69.445  0.00  0.00    +0.000 A 
ENDBRANCH  35  36
ENDBRANCH  33  35
ENDBRANCH   7  33
TORSDOF 5
ENDMDL
MODEL 6
REMARK VINA RESULT:    -7.824      4.107      7.519
REMARK INTER + INTRA:         -11.990
REMARK INTER:                 -10.353
REMARK INTRA:                  -1.637
REMARK UNBOUND:                -1.879
REMARK  Name = CNP0040680_2.pdb
REMARK  7 active torsions:
REMARK  status: ('A' for Active; 'I' for Inactive)
REMARK    1  A    between atoms: C1_1  and  C2_2
REMARK    2  A    between atoms: C5_5  and  N1_6
REMARK    3  A    between atoms: C10_12  and  C11_13
REMARK    4  A    between atoms: C11_13  and  O3_15
REMARK    5  A    between atoms: O3_15  and  C12_16
REMARK    6  A    between atoms: N2_29  and  C23_30
REMARK    7  A    between atoms: C26_33  and  C27_34
REMARK                            x       y       z     vdW  Elec       q    Type
REMARK                         _______ _______ _______ _____ _____    ______ ____
ROOT
ATOM      1  N1  UNL     1      60.969  55.717  70.901  0.00  0.00    +0.000 N 
ATOM      2  C6  UNL     1      59.937  56.517  70.283  0.00  0.00    +0.000 C 
ATOM      3  O1  UNL     1      59.823  57.764  70.405  0.00  0.00    +0.000 OA
ATOM      4  C7  UNL     1      59.241  55.679  69.280  0.00  0.00    +0.000 C 
ATOM      5  C8  UNL     1      57.887  55.799  68.500  0.00  0.00    +0.000 C 
ATOM      6  C9  UNL     1      56.806  55.006  69.267  0.00  0.00    +0.000 C 
ATOM      7  C10 UNL     1      57.063  53.664  69.416  0.00  0.00    +0.000 C 
ATOM      8  C18 UNL     1      58.520  53.244  69.099  0.00  0.00    +0.000 C 
ATOM      9  C19 UNL     1      59.303  54.295  69.984  0.00  0.00    +0.000 C 
ATOM     10  C20 UNL     1      60.680  54.352  70.530  0.00  0.00    +0.000 C 
ATOM     11  O4  UNL     1      61.389  53.359  70.840  0.00  0.00    +0.000 OA
ATOM     12  C21 UNL     1      58.826  53.609  67.605  0.00  0.00    +0.000 C 
ATOM     13  C22 UNL     1      58.757  52.866  66.326  0.00  0.00    +0.000 C 
ATOM     14  O5  UNL     1      58.857  51.617  66.191  0.00  0.00    +0.000 OA
ATOM     15  N2  UNL     1      58.805  53.821  65.245  0.00  0.00    +0.000 N 
ATOM     16  C30 UNL     1      58.560  55.107  65.851  0.00  0.00    +0.000 C 
ATOM     17  O6  UNL     1      58.582  56.209  65.240  0.00  0.00    +0.000 OA
ATOM     18  C31 UNL     1      58.029  54.886  67.216  0.00  0.00    +0.000 C 
ENDROOT
BRANCH   1  23
ATOM     19  C1  UNL     1      65.532  57.657  73.823  0.00  0.00    +0.000 C 
ATOM     20  C2  UNL     1      64.337  57.145  73.075  0.00  0.00    +0.000 A 
ATOM     21  C3  UNL     1      63.790  55.887  73.365  0.00  0.00    +0.000 A 
ATOM     22  C4  UNL     1      62.681  55.419  72.654  0.00  0.00    +0.000 A 
ATOM     23  C5  UNL     1      62.105  56.201  71.639  0.00  0.00    +0.000 A 
ATOM     24  C32 UNL     1      62.656  57.459  71.350  0.00  0.00    +0.000 A 
ATOM     25  C33 UNL     1      63.764  57.928  72.063  0.00  0.00    +0.000 A 
ENDBRANCH   1  23
BRANCH  15  26
ATOM     26  C23 UNL     1      59.033  53.547  63.852  0.00  0.00    +0.000 A 
ATOM     27  C24 UNL     1      60.269  53.038  63.420  0.00  0.00    +0.000 A 
ATOM     28  C25 UNL     1      60.494  52.773  62.067  0.00  0.00    +0.000 A 
ATOM     29  C26 UNL     1      59.490  53.027  61.121  0.00  0.00    +0.000 A 
ATOM     30  C27 UNL     1      59.714  52.712  59.672  0.00  0.00    +0.000 C 
ATOM     31  C28 UNL     1      58.249  53.521  61.550  0.00  0.00    +0.000 A 
ATOM     32  C29 UNL     1      58.024  53.785  62.904  0.00  0.00    +0.000 A 
ENDBRANCH  15  26
BRANCH   7  33
ATOM     33  C11 UNL     1      56.068  52.713  69.939  0.00  0.00    +0.000 C 
ATOM     34  O2  UNL     1      55.371  52.029  69.139  0.00  0.00    +0.000 OA
BRANCH  33  35
ATOM     35  O3  UNL     1      55.964  52.525  71.324  0.00  0.00    +0.000 OA
BRANCH  35  36
ATOM     36  C12 UNL     1      56.829  53.061  72.290  0.00  0.00    +0.000 A 
ATOM     37  C13 UNL     1      56.511  54.305  72.850  0.00  0.00    +0.000 A 
ATOM     38  C14 UNL     1      57.347  54.887  73.809  0.00  0.00    +0.000 A 
ATOM     39  C15 UNL     1      58.500  54.220  74.229  0.00  0.00    +0.000 A 
ATOM     40  C16 UNL     1      58.813  52.966  73.698  0.00  0.00    +0.000 A 
ATOM     41  C17 UNL     1      57.978  52.380  72.738  0.00  0.00    +0.000 A 
ENDBRANCH  35  36
ENDBRANCH  33  35
ENDBRANCH   7  33
TORSDOF 5
ENDMDL
MODEL 7
REMARK VINA RESULT:    -7.739      4.672     10.361
REMARK INTER + INTRA:         -11.880
REMARK INTER:                 -10.061
REMARK INTRA:                  -1.819
REMARK UNBOUND:                -1.879
REMARK  Name = CNP0040680_2.pdb
REMARK  7 active torsions:
REMARK  status: ('A' for Active; 'I' for Inactive)
REMARK    1  A    between atoms: C1_1  and  C2_2
REMARK    2  A    between atoms: C5_5  and  N1_6
REMARK    3  A    between atoms: C10_12  and  C11_13
REMARK    4  A    between atoms: C11_13  and  O3_15
REMARK    5  A    between atoms: O3_15  and  C12_16
REMARK    6  A    between atoms: N2_29  and  C23_30
REMARK    7  A    between atoms: C26_33  and  C27_34
REMARK                            x       y       z     vdW  Elec       q    Type
REMARK                         _______ _______ _______ _____ _____    ______ ____
ROOT
ATOM      1  N1  UNL     1      59.826  52.914  64.787  0.00  0.00    +0.000 N 
ATOM      2  C6  UNL     1      60.127  51.901  65.771  0.00  0.00    +0.000 C 
ATOM      3  O1  UNL     1      60.619  50.772  65.513  0.00  0.00    +0.000 OA
ATOM      4  C7  UNL     1      60.033  52.518  67.114  0.00  0.00    +0.000 C 
ATOM      5  C8  UNL     1      59.935  51.957  68.574  0.00  0.00    +0.000 C 
ATOM      6  C9  UNL     1      58.446  51.900  68.978  0.00  0.00    +0.000 C 
ATOM      7  C10 UNL     1      57.792  53.109  68.971  0.00  0.00    +0.000 C 
ATOM      8  C18 UNL     1      58.547  54.249  68.243  0.00  0.00    +0.000 C 
ATOM      9  C19 UNL     1      58.876  53.526  66.875  0.00  0.00    +0.000 C 
ATOM     10  C20 UNL     1      59.238  54.010  65.521  0.00  0.00    +0.000 C 
ATOM     11  O4  UNL     1      58.883  55.106  65.014  0.00  0.00    +0.000 OA
ATOM     12  C21 UNL     1      59.921  54.472  68.966  0.00  0.00    +0.000 C 
ATOM     13  C22 UNL     1      60.390  55.385  70.033  0.00  0.00    +0.000 C 
ATOM     14  O5  UNL     1      59.899  56.512  70.310  0.00  0.00    +0.000 OA
ATOM     15  N2  UNL     1      61.646  54.884  70.538  0.00  0.00    +0.000 N 
ATOM     16  C30 UNL     1      61.756  53.535  70.037  0.00  0.00    +0.000 C 
ATOM     17  O6  UNL     1      62.750  52.781  70.210  0.00  0.00    +0.000 OA
ATOM     18  C31 UNL     1      60.429  53.116  69.530  0.00  0.00    +0.000 C 
ENDROOT
BRANCH   1  23
ATOM     19  C1  UNL     1      61.137  52.785  59.185  0.00  0.00    +0.000 C 
ATOM     20  C2  UNL     1      60.783  52.810  60.642  0.00  0.00    +0.000 A 
ATOM     21  C3  UNL     1      59.446  52.907  61.057  0.00  0.00    +0.000 A 
ATOM     22  C4  UNL     1      59.131  52.937  62.418  0.00  0.00    +0.000 A 
ATOM     23  C5  UNL     1      60.148  52.875  63.386  0.00  0.00    +0.000 A 
ATOM     24  C32 UNL     1      61.484  52.781  62.967  0.00  0.00    +0.000 A 
ATOM     25  C33 UNL     1      61.800  52.748  61.605  0.00  0.00    +0.000 A 
ENDBRANCH   1  23
BRANCH  15  26
ATOM     26  C23 UNL     1      62.584  55.578  71.377  0.00  0.00    +0.000 A 
ATOM     27  C24 UNL     1      63.310  54.883  72.359  0.00  0.00    +0.000 A 
ATOM     28  C25 UNL     1      64.221  55.556  73.178  0.00  0.00    +0.000 A 
ATOM     29  C26 UNL     1      64.410  56.939  73.037  0.00  0.00    +0.000 A 
ATOM     30  C27 UNL     1      65.411  57.660  73.889  0.00  0.00    +0.000 C 
ATOM     31  C28 UNL     1      63.699  57.633  72.047  0.00  0.00    +0.000 A 
ATOM     32  C29 UNL     1      62.789  56.960  71.228  0.00  0.00    +0.000 A 
ENDBRANCH  15  26
BRANCH   7  33
ATOM     33  C11 UNL     1      56.435  53.288  69.513  0.00  0.00    +0.000 C 
ATOM     34  O2  UNL     1      55.434  53.181  68.751  0.00  0.00    +0.000 OA
BRANCH  33  35
ATOM     35  O3  UNL     1      56.272  53.501  70.888  0.00  0.00    +0.000 OA
BRANCH  35  36
ATOM     36  C12 UNL     1      56.892  54.510  71.641  0.00  0.00    +0.000 A 
ATOM     37  C13 UNL     1      57.895  54.142  72.547  0.00  0.00    +0.000 A 
ATOM     38  C14 UNL     1      58.535  55.109  73.329  0.00  0.00    +0.000 A 
ATOM     39  C15 UNL     1      58.188  56.456  73.198  0.00  0.00    +0.000 A 
ATOM     40  C16 UNL     1      57.208  56.838  72.278  0.00  0.00    +0.000 A 
ATOM     41  C17 UNL     1      56.567  55.872  71.493  0.00  0.00    +0.000 A 
ENDBRANCH  35  36
ENDBRANCH  33  35
ENDBRANCH   7  33
TORSDOF 5
ENDMDL
MODEL 8
REMARK VINA RESULT:    -7.706      1.203      7.979
REMARK INTER + INTRA:         -11.838
REMARK INTER:                 -10.997
REMARK INTRA:                  -0.840
REMARK UNBOUND:                -1.879
REMARK  Name = CNP0040680_2.pdb
REMARK  7 active torsions:
REMARK  status: ('A' for Active; 'I' for Inactive)
REMARK    1  A    between atoms: C1_1  and  C2_2
REMARK    2  A    between atoms: C5_5  and  N1_6
REMARK    3  A    between atoms: C10_12  and  C11_13
REMARK    4  A    between atoms: C11_13  and  O3_15
REMARK    5  A    between atoms: O3_15  and  C12_16
REMARK    6  A    between atoms: N2_29  and  C23_30
REMARK    7  A    between atoms: C26_33  and  C27_34
REMARK                            x       y       z     vdW  Elec       q    Type
REMARK                         _______ _______ _______ _____ _____    ______ ____
ROOT
ATOM      1  N1  UNL     1      59.216  56.300  71.874  0.00  0.00    +0.000 N 
ATOM      2  C6  UNL     1      60.137  55.202  72.051  0.00  0.00    +0.000 C 
ATOM      3  O1  UNL     1      61.211  55.054  71.412  0.00  0.00    +0.000 OA
ATOM      4  C7  UNL     1      59.752  54.469  73.279  0.00  0.00    +0.000 C 
ATOM      5  C8  UNL     1      60.105  53.062  73.872  0.00  0.00    +0.000 C 
ATOM      6  C9  UNL     1      59.003  52.064  73.458  0.00  0.00    +0.000 C 
ATOM      7  C10 UNL     1      57.738  52.375  73.897  0.00  0.00    +0.000 C 
ATOM      8  C18 UNL     1      57.575  53.821  74.428  0.00  0.00    +0.000 C 
ATOM      9  C19 UNL     1      58.207  54.626  73.222  0.00  0.00    +0.000 C 
ATOM     10  C20 UNL     1      58.114  56.034  72.768  0.00  0.00    +0.000 C 
ATOM     11  O4  UNL     1      57.126  56.796  72.936  0.00  0.00    +0.000 OA
ATOM     12  C21 UNL     1      58.546  54.013  75.645  0.00  0.00    +0.000 C 
ATOM     13  C22 UNL     1      58.400  53.884  77.113  0.00  0.00    +0.000 C 
ATOM     14  O5  UNL     1      57.329  54.018  77.763  0.00  0.00    +0.000 OA
ATOM     15  N2  UNL     1      59.719  53.826  77.696  0.00  0.00    +0.000 N 
ATOM     16  C30 UNL     1      60.619  53.578  76.596  0.00  0.00    +0.000 C 
ATOM     17  O6  UNL     1      61.874  53.522  76.690  0.00  0.00    +0.000 OA
ATOM     18  C31 UNL     1      59.819  53.149  75.425  0.00  0.00    +0.000 C 
ENDROOT
BRANCH   1  23
ATOM     19  C1  UNL     1      60.012  60.985  68.627  0.00  0.00    +0.000 C 
ATOM     20  C2  UNL     1      59.800  59.756  69.461  0.00  0.00    +0.000 A 
ATOM     21  C3  UNL     1      58.731  58.885  69.202  0.00  0.00    +0.000 A 
ATOM     22  C4  UNL     1      58.541  57.748  69.992  0.00  0.00    +0.000 A 
ATOM     23  C5  UNL     1      59.415  57.465  71.055  0.00  0.00    +0.000 A 
ATOM     24  C32 UNL     1      60.482  58.340  71.312  0.00  0.00    +0.000 A 
ATOM     25  C33 UNL     1      60.674  59.477  70.521  0.00  0.00    +0.000 A 
ENDBRANCH   1  23
BRANCH  15  26
ATOM     26  C23 UNL     1      60.063  53.970  79.084  0.00  0.00    +0.000 A 
ATOM     27  C24 UNL     1      59.138  54.507  79.994  0.00  0.00    +0.000 A 
ATOM     28  C25 UNL     1      59.472  54.650  81.344  0.00  0.00    +0.000 A 
ATOM     29  C26 UNL     1      60.742  54.270  81.802  0.00  0.00    +0.000 A 
ATOM     30  C27 UNL     1      61.092  54.388  83.256  0.00  0.00    +0.000 C 
ATOM     31  C28 UNL     1      61.662  53.718  80.899  0.00  0.00    +0.000 A 
ATOM     32  C29 UNL     1      61.329  53.574  79.550  0.00  0.00    +0.000 A 
ENDBRANCH  15  26
BRANCH   7  33
ATOM     33  C11 UNL     1      56.598  51.452  73.775  0.00  0.00    +0.000 C 
ATOM     34  O2  UNL     1      56.573  50.390  74.457  0.00  0.00    +0.000 OA
BRANCH  33  35
ATOM     35  O3  UNL     1      55.518  51.805  72.955  0.00  0.00    +0.000 OA
BRANCH  35  36
ATOM     36  C12 UNL     1      55.467  51.664  71.560  0.00  0.00    +0.000 A 
ATOM     37  C13 UNL     1      56.123  52.619  70.772  0.00  0.00    +0.000 A 
ATOM     38  C14 UNL     1      56.093  52.530  69.376  0.00  0.00    +0.000 A 
ATOM     39  C15 UNL     1      55.420  51.474  68.758  0.00  0.00    +0.000 A 
ATOM     40  C16 UNL     1      54.784  50.502  69.533  0.00  0.00    +0.000 A 
ATOM     41  C17 UNL     1      54.814  50.587  70.931  0.00  0.00    +0.000 A 
ENDBRANCH  35  36
ENDBRANCH  33  35
ENDBRANCH   7  33
TORSDOF 5
ENDMDL
MODEL 9
REMARK VINA RESULT:    -7.679      1.522      8.516
REMARK INTER + INTRA:         -11.802
REMARK INTER:                 -10.051
REMARK INTRA:                  -1.751
REMARK UNBOUND:                -1.879
REMARK  Name = CNP0040680_2.pdb
REMARK  7 active torsions:
REMARK  status: ('A' for Active; 'I' for Inactive)
REMARK    1  A    between atoms: C1_1  and  C2_2
REMARK    2  A    between atoms: C5_5  and  N1_6
REMARK    3  A    between atoms: C10_12  and  C11_13
REMARK    4  A    between atoms: C11_13  and  O3_15
REMARK    5  A    between atoms: O3_15  and  C12_16
REMARK    6  A    between atoms: N2_29  and  C23_30
REMARK    7  A    between atoms: C26_33  and  C27_34
REMARK                            x       y       z     vdW  Elec       q    Type
REMARK                         _______ _______ _______ _____ _____    ______ ____
ROOT
ATOM      1  N1  UNL     1      59.155  56.342  71.892  0.00  0.00    +0.000 N 
ATOM      2  C6  UNL     1      60.047  55.219  72.057  0.00  0.00    +0.000 C 
ATOM      3  O1  UNL     1      61.108  55.041  71.403  0.00  0.00    +0.000 OA
ATOM      4  C7  UNL     1      59.660  54.497  73.291  0.00  0.00    +0.000 C 
ATOM      5  C8  UNL     1      59.983  53.081  73.880  0.00  0.00    +0.000 C 
ATOM      6  C9  UNL     1      58.847  52.114  73.483  0.00  0.00    +0.000 C 
ATOM      7  C10 UNL     1      57.598  52.461  73.940  0.00  0.00    +0.000 C 
ATOM      8  C18 UNL     1      57.483  53.911  74.472  0.00  0.00    +0.000 C 
ATOM      9  C19 UNL     1      58.120  54.698  73.257  0.00  0.00    +0.000 C 
ATOM     10  C20 UNL     1      58.059  56.108  72.803  0.00  0.00    +0.000 C 
ATOM     11  O4  UNL     1      57.095  56.896  72.985  0.00  0.00    +0.000 OA
ATOM     12  C21 UNL     1      58.476  54.076  75.675  0.00  0.00    +0.000 C 
ATOM     13  C22 UNL     1      58.348  53.952  77.144  0.00  0.00    +0.000 C 
ATOM     14  O5  UNL     1      57.290  54.116  77.810  0.00  0.00    +0.000 OA
ATOM     15  N2  UNL     1      59.673  53.857  77.709  0.00  0.00    +0.000 N 
ATOM     16  C30 UNL     1      60.550  53.584  76.596  0.00  0.00    +0.000 C 
ATOM     17  O6  UNL     1      61.804  53.493  76.672  0.00  0.00    +0.000 OA
ATOM     18  C31 UNL     1      59.722  53.177  75.437  0.00  0.00    +0.000 C 
ENDROOT
BRANCH   1  23
ATOM     19  C1  UNL     1      60.033  61.003  68.632  0.00  0.00    +0.000 C 
ATOM     20  C2  UNL     1      59.799  59.780  69.469  0.00  0.00    +0.000 A 
ATOM     21  C3  UNL     1      58.720  58.924  69.209  0.00  0.00    +0.000 A 
ATOM     22  C4  UNL     1      58.510  57.792  70.002  0.00  0.00    +0.000 A 
ATOM     23  C5  UNL     1      59.374  57.502  71.070  0.00  0.00    +0.000 A 
ATOM     24  C32 UNL     1      60.452  58.362  71.329  0.00  0.00    +0.000 A 
ATOM     25  C33 UNL     1      60.664  59.493  70.534  0.00  0.00    +0.000 A 
ENDBRANCH   1  23
BRANCH  15  26
ATOM     26  C23 UNL     1      60.041  53.991  79.091  0.00  0.00    +0.000 A 
ATOM     27  C24 UNL     1      61.320  53.608  79.528  0.00  0.00    +0.000 A 
ATOM     28  C25 UNL     1      61.679  53.736  80.873  0.00  0.00    +0.000 A 
ATOM     29  C26 UNL     1      60.758  54.235  81.806  0.00  0.00    +0.000 A 
ATOM     30  C27 UNL     1      61.149  54.406  83.243  0.00  0.00    +0.000 C 
ATOM     31  C28 UNL     1      59.485  54.633  81.370  0.00  0.00    +0.000 A 
ATOM     32  C29 UNL     1      59.127  54.507  80.026  0.00  0.00    +0.000 A 
ENDBRANCH  15  26
BRANCH   7  33
ATOM     33  C11 UNL     1      56.431  51.569  73.835  0.00  0.00    +0.000 C 
ATOM     34  O2  UNL     1      55.625  51.698  72.871  0.00  0.00    +0.000 OA
BRANCH  33  35
ATOM     35  O3  UNL     1      56.274  50.537  74.769  0.00  0.00    +0.000 OA
BRANCH  35  36
ATOM     36  C12 UNL     1      56.571  50.619  76.138  0.00  0.00    +0.000 A 
ATOM     37  C13 UNL     1      57.858  50.262  76.562  0.00  0.00    +0.000 A 
ATOM     38  C14 UNL     1      58.200  50.315  77.917  0.00  0.00    +0.000 A 
ATOM     39  C15 UNL     1      57.263  50.744  78.858  0.00  0.00    +0.000 A 
ATOM     40  C16 UNL     1      55.985  51.129  78.445  0.00  0.00    +0.000 A 
ATOM     41  C17 UNL     1      55.639  51.078  77.089  0.00  0.00    +0.000 A 
ENDBRANCH  35  36
ENDBRANCH  33  35
ENDBRANCH   7  33
TORSDOF 5
ENDMDL
MODEL 10
REMARK VINA RESULT:    -7.674      1.768      8.323
REMARK INTER + INTRA:         -11.796
REMARK INTER:                 -11.076
REMARK INTRA:                  -0.720
REMARK UNBOUND:                -1.879
REMARK  Name = CNP0040680_2.pdb
REMARK  7 active torsions:
REMARK  status: ('A' for Active; 'I' for Inactive)
REMARK    1  A    between atoms: C1_1  and  C2_2
REMARK    2  A    between atoms: C5_5  and  N1_6
REMARK    3  A    between atoms: C10_12  and  C11_13
REMARK    4  A    between atoms: C11_13  and  O3_15
REMARK    5  A    between atoms: O3_15  and  C12_16
REMARK    6  A    between atoms: N2_29  and  C23_30
REMARK    7  A    between atoms: C26_33  and  C27_34
REMARK                            x       y       z     vdW  Elec       q    Type
REMARK                         _______ _______ _______ _____ _____    ______ ____
ROOT
ATOM      1  N1  UNL     1      59.166  56.332  71.880  0.00  0.00    +0.000 N 
ATOM      2  C6  UNL     1      60.067  55.213  72.029  0.00  0.00    +0.000 C 
ATOM      3  O1  UNL     1      61.130  55.053  71.374  0.00  0.00    +0.000 OA
ATOM      4  C7  UNL     1      59.684  54.471  73.252  0.00  0.00    +0.000 C 
ATOM      5  C8  UNL     1      60.017  53.049  73.821  0.00  0.00    +0.000 C 
ATOM      6  C9  UNL     1      58.890  52.079  73.408  0.00  0.00    +0.000 C 
ATOM      7  C10 UNL     1      57.637  52.409  73.869  0.00  0.00    +0.000 C 
ATOM      8  C18 UNL     1      57.510  53.851  74.422  0.00  0.00    +0.000 C 
ATOM      9  C19 UNL     1      58.142  54.660  73.219  0.00  0.00    +0.000 C 
ATOM     10  C20 UNL     1      58.071  56.075  72.785  0.00  0.00    +0.000 C 
ATOM     11  O4  UNL     1      57.100  56.854  72.977  0.00  0.00    +0.000 OA
ATOM     12  C21 UNL     1      58.501  54.006  75.628  0.00  0.00    +0.000 C 
ATOM     13  C22 UNL     1      58.372  53.860  77.095  0.00  0.00    +0.000 C 
ATOM     14  O5  UNL     1      57.313  54.005  77.762  0.00  0.00    +0.000 OA
ATOM     15  N2  UNL     1      59.698  53.767  77.660  0.00  0.00    +0.000 N 
ATOM     16  C30 UNL     1      60.578  53.517  76.544  0.00  0.00    +0.000 C 
ATOM     17  O6  UNL     1      61.833  53.434  76.620  0.00  0.00    +0.000 OA
ATOM     18  C31 UNL     1      59.754  53.120  75.379  0.00  0.00    +0.000 C 
ENDROOT
BRANCH   1  23
ATOM     19  C1  UNL     1      60.011  61.004  68.628  0.00  0.00    +0.000 C 
ATOM     20  C2  UNL     1      59.796  59.795  69.488  0.00  0.00    +0.000 A 
ATOM     21  C3  UNL     1      60.664  59.501  70.550  0.00  0.00    +0.000 A 
ATOM     22  C4  UNL     1      60.455  58.366  71.338  0.00  0.00    +0.000 A 
ATOM     23  C5  UNL     1      59.377  57.504  71.074  0.00  0.00    +0.000 A 
ATOM     24  C32 UNL     1      58.512  57.800  70.010  0.00  0.00    +0.000 A 
ATOM     25  C33 UNL     1      58.719  58.937  69.222  0.00  0.00    +0.000 A 
ENDBRANCH   1  23
BRANCH  15  26
ATOM     26  C23 UNL     1      60.063  53.884  79.045  0.00  0.00    +0.000 A 
ATOM     27  C24 UNL     1      61.329  53.463  79.485  0.00  0.00    +0.000 A 
ATOM     28  C25 UNL     1      61.685  53.573  80.832  0.00  0.00    +0.000 A 
ATOM     29  C26 UNL     1      60.775  54.094  81.763  0.00  0.00    +0.000 A 
ATOM     30  C27 UNL     1      61.165  54.247  83.203  0.00  0.00    +0.000 C 
ATOM     31  C28 UNL     1      59.516  54.530  81.324  0.00  0.00    +0.000 A 
ATOM     32  C29 UNL     1      59.160  54.421  79.978  0.00  0.00    +0.000 A 
ENDBRANCH  15  26
BRANCH   7  33
ATOM     33  C11 UNL     1      56.478  51.510  73.749  0.00  0.00    +0.000 C 
ATOM     34  O2  UNL     1      56.500  50.378  74.307  0.00  0.00    +0.000 OA
BRANCH  33  35
ATOM     35  O3  UNL     1      55.332  51.959  73.079  0.00  0.00    +0.000 OA
BRANCH  35  36
ATOM     36  C12 UNL     1      54.165  52.446  73.686  0.00  0.00    +0.000 A 
ATOM     37  C13 UNL     1      53.188  51.525  74.085  0.00  0.00    +0.000 A 
ATOM     38  C14 UNL     1      52.002  51.961  74.685  0.00  0.00    +0.000 A 
ATOM     39  C15 UNL     1      51.791  53.323  74.906  0.00  0.00    +0.000 A 
ATOM     40  C16 UNL     1      52.769  54.250  74.537  0.00  0.00    +0.000 A 
ATOM     41  C17 UNL     1      53.958  53.816  73.938  0.00  0.00    +0.000 A 
ENDBRANCH  35  36
ENDBRANCH  33  35
ENDBRANCH   7  33
TORSDOF 5
ENDMDL
