MODEL 1
REMARK VINA RESULT:    -8.077      0.000      0.000
REMARK INTER + INTRA:         -10.261
REMARK INTER:                  -9.258
REMARK INTRA:                  -1.003
REMARK UNBOUND:                -1.003
REMARK  Name = CNP0124950_0.pdb
REMARK  5 active torsions:
REMARK  status: ('A' for Active; 'I' for Inactive)
REMARK    1  A    between atoms: C1_1  and  C2_2
REMARK    2  A    between atoms: C2_2  and  C3_4
REMARK    3  A    between atoms: C7_10  and  C8_11
REMARK    4  A    between atoms: C23_30  and  C24_31
REMARK    5  A    between atoms: C26_33  and  O7_34
REMARK                            x       y       z     vdW  Elec       q    Type
REMARK                         _______ _______ _______ _____ _____    ______ ____
ROOT
ATOM      1  C3  UNL     1      61.744  56.860  71.282  0.00  0.00    +0.000 A 
ATOM      2  C4  UNL     1      61.756  55.558  70.761  0.00  0.00    +0.000 A 
ATOM      3  O2  UNL     1      62.551  54.587  71.385  0.00  0.00    +0.000 OA
ATOM      4  C5  UNL     1      62.504  53.245  71.023  0.00  0.00    +0.000 C 
ATOM      5  O3  UNL     1      63.335  52.434  71.512  0.00  0.00    +0.000 OA
ATOM      6  C6  UNL     1      61.406  52.758  70.140  0.00  0.00    +0.000 C 
ATOM      7  C7  UNL     1      61.055  53.803  69.061  0.00  0.00    +0.000 C 
ATOM      8  C19 UNL     1      61.014  55.239  69.605  0.00  0.00    +0.000 A 
ATOM      9  C20 UNL     1      60.397  56.286  68.882  0.00  0.00    +0.000 A 
ATOM     10  O5  UNL     1      59.840  56.016  67.705  0.00  0.00    +0.000 OA
ATOM     11  C21 UNL     1      59.216  56.918  66.966  0.00  0.00    +0.000 A 
ATOM     12  O6  UNL     1      58.708  56.579  65.866  0.00  0.00    +0.000 OA
ATOM     13  C22 UNL     1      59.119  58.234  67.400  0.00  0.00    +0.000 A 
ATOM     14  C23 UNL     1      59.698  58.605  68.620  0.00  0.00    +0.000 A 
ATOM     15  C24 UNL     1      59.592  60.055  69.027  0.00  0.00    +0.000 C 
ATOM     16  C25 UNL     1      60.368  57.612  69.397  0.00  0.00    +0.000 A 
ATOM     17  C26 UNL     1      61.004  57.877  70.638  0.00  0.00    +0.000 A 
ENDROOT
BRANCH   7  18
ATOM     18  C8  UNL     1      59.748  53.378  68.403  0.00  0.00    +0.000 A 
ATOM     19  C9  UNL     1      58.552  53.332  69.168  0.00  0.00    +0.000 A 
ATOM     20  C10 UNL     1      57.346  52.959  68.560  0.00  0.00    +0.000 A 
ATOM     21  C11 UNL     1      56.106  52.898  69.223  0.00  0.00    +0.000 A 
ATOM     22  C12 UNL     1      54.949  52.513  68.505  0.00  0.00    +0.000 A 
ATOM     23  C13 UNL     1      55.031  52.189  67.133  0.00  0.00    +0.000 A 
ATOM     24  C14 UNL     1      56.279  52.262  66.509  0.00  0.00    +0.000 A 
ATOM     25  C15 UNL     1      57.380  52.633  67.211  0.00  0.00    +0.000 A 
ATOM     26  N1  UNL     1      58.498  52.657  66.485  0.00  0.00    +0.000 N 
ATOM     27  C16 UNL     1      58.201  52.264  65.108  0.00  0.00    +0.000 C 
ATOM     28  C17 UNL     1      56.670  51.984  65.095  0.00  0.00    +0.000 C 
ATOM     29  C18 UNL     1      59.696  53.015  67.029  0.00  0.00    +0.000 A 
ATOM     30  O4  UNL     1      60.734  53.023  66.314  0.00  0.00    +0.000 OA
ENDBRANCH   7  18
BRANCH   1  32
ATOM     31  C1  UNL     1      64.035  57.225  72.444  0.00  0.00    +0.000 C 
ATOM     32  C2  UNL     1      62.540  57.145  72.497  0.00  0.00    +0.000 C 
ATOM     33  O1  UNL     1      61.959  57.260  73.609  0.00  0.00    +0.000 OA
ENDBRANCH   1  32
BRANCH  17  34
ATOM     34  O7  UNL     1      60.886  59.135  71.238  0.00  0.00    +0.000 OA
ATOM     35  H19 UNL     1      61.365  59.961  70.907  0.00  0.00    +0.000 HD
ENDBRANCH  17  34
TORSDOF 3
ENDMDL
MODEL 2
REMARK VINA RESULT:    -7.952      3.317      5.414
REMARK INTER + INTRA:         -10.117
REMARK INTER:                  -9.068
REMARK INTRA:                  -1.049
REMARK UNBOUND:                -1.003
REMARK  Name = CNP0124950_0.pdb
REMARK  5 active torsions:
REMARK  status: ('A' for Active; 'I' for Inactive)
REMARK    1  A    between atoms: C1_1  and  C2_2
REMARK    2  A    between atoms: C2_2  and  C3_4
REMARK    3  A    between atoms: C7_10  and  C8_11
REMARK    4  A    between atoms: C23_30  and  C24_31
REMARK    5  A    between atoms: C26_33  and  O7_34
REMARK                            x       y       z     vdW  Elec       q    Type
REMARK                         _______ _______ _______ _____ _____    ______ ____
ROOT
ATOM      1  C3  UNL     1      61.291  53.811  74.960  0.00  0.00    +0.000 A 
ATOM      2  C4  UNL     1      61.870  54.699  74.042  0.00  0.00    +0.000 A 
ATOM      3  O2  UNL     1      63.218  55.049  74.197  0.00  0.00    +0.000 OA
ATOM      4  C5  UNL     1      63.903  55.802  73.250  0.00  0.00    +0.000 C 
ATOM      5  O3  UNL     1      65.069  56.209  73.496  0.00  0.00    +0.000 OA
ATOM      6  C6  UNL     1      63.292  56.032  71.909  0.00  0.00    +0.000 C 
ATOM      7  C7  UNL     1      61.768  56.237  72.021  0.00  0.00    +0.000 C 
ATOM      8  C19 UNL     1      61.101  55.265  73.005  0.00  0.00    +0.000 A 
ATOM      9  C20 UNL     1      59.701  55.058  73.005  0.00  0.00    +0.000 A 
ATOM     10  O5  UNL     1      58.951  55.723  72.132  0.00  0.00    +0.000 OA
ATOM     11  C21 UNL     1      57.639  55.579  72.035  0.00  0.00    +0.000 A 
ATOM     12  O6  UNL     1      57.003  56.241  71.174  0.00  0.00    +0.000 OA
ATOM     13  C22 UNL     1      56.966  54.704  72.876  0.00  0.00    +0.000 A 
ATOM     14  C23 UNL     1      57.681  53.980  73.839  0.00  0.00    +0.000 A 
ATOM     15  C24 UNL     1      56.895  53.068  74.748  0.00  0.00    +0.000 C 
ATOM     16  C25 UNL     1      59.096  54.156  73.924  0.00  0.00    +0.000 A 
ATOM     17  C26 UNL     1      59.918  53.489  74.870  0.00  0.00    +0.000 A 
ENDROOT
BRANCH   7  18
ATOM     18  C8  UNL     1      61.179  56.161  70.617  0.00  0.00    +0.000 A 
ATOM     19  C9  UNL     1      61.280  54.956  69.872  0.00  0.00    +0.000 A 
ATOM     20  C10 UNL     1      60.723  54.879  68.588  0.00  0.00    +0.000 A 
ATOM     21  C11 UNL     1      60.753  53.731  67.776  0.00  0.00    +0.000 A 
ATOM     22  C12 UNL     1      60.152  53.766  66.495  0.00  0.00    +0.000 A 
ATOM     23  C13 UNL     1      59.527  54.943  66.028  0.00  0.00    +0.000 A 
ATOM     24  C14 UNL     1      59.517  56.063  66.863  0.00  0.00    +0.000 A 
ATOM     25  C15 UNL     1      60.097  56.014  68.090  0.00  0.00    +0.000 A 
ATOM     26  N1  UNL     1      60.009  57.156  68.772  0.00  0.00    +0.000 N 
ATOM     27  C16 UNL     1      59.296  58.153  67.976  0.00  0.00    +0.000 C 
ATOM     28  C17 UNL     1      58.941  57.424  66.648  0.00  0.00    +0.000 C 
ATOM     29  C18 UNL     1      60.533  57.281  70.025  0.00  0.00    +0.000 A 
ATOM     30  O4  UNL     1      60.436  58.376  70.641  0.00  0.00    +0.000 OA
ENDBRANCH   7  18
BRANCH   1  32
ATOM     31  C1  UNL     1      63.123  52.150  75.747  0.00  0.00    +0.000 C 
ATOM     32  C2  UNL     1      62.141  53.244  76.032  0.00  0.00    +0.000 C 
ATOM     33  O1  UNL     1      61.994  53.643  77.218  0.00  0.00    +0.000 OA
ENDBRANCH   1  32
BRANCH  17  34
ATOM     34  O7  UNL     1      59.381  52.501  75.700  0.00  0.00    +0.000 OA
ATOM     35  H19 UNL     1      59.903  52.038  76.431  0.00  0.00    +0.000 HD
ENDBRANCH  17  34
TORSDOF 3
ENDMDL
MODEL 3
REMARK VINA RESULT:    -7.664      4.590      7.977
REMARK INTER + INTRA:          -9.788
REMARK INTER:                  -8.813
REMARK INTRA:                  -0.974
REMARK UNBOUND:                -1.003
REMARK  Name = CNP0124950_0.pdb
REMARK  5 active torsions:
REMARK  status: ('A' for Active; 'I' for Inactive)
REMARK    1  A    between atoms: C1_1  and  C2_2
REMARK    2  A    between atoms: C2_2  and  C3_4
REMARK    3  A    between atoms: C7_10  and  C8_11
REMARK    4  A    between atoms: C23_30  and  C24_31
REMARK    5  A    between atoms: C26_33  and  O7_34
REMARK                            x       y       z     vdW  Elec       q    Type
REMARK                         _______ _______ _______ _____ _____    ______ ____
ROOT
ATOM      1  C3  UNL     1      65.775  50.497  73.309  0.00  0.00    +0.000 A 
ATOM      2  C4  UNL     1      64.901  51.217  74.137  0.00  0.00    +0.000 A 
ATOM      3  O2  UNL     1      65.061  51.130  75.526  0.00  0.00    +0.000 OA
ATOM      4  C5  UNL     1      64.335  51.923  76.408  0.00  0.00    +0.000 C 
ATOM      5  O3  UNL     1      64.409  51.713  77.647  0.00  0.00    +0.000 OA
ATOM      6  C6  UNL     1      63.557  53.083  75.886  0.00  0.00    +0.000 C 
ATOM      7  C7  UNL     1      62.913  52.752  74.524  0.00  0.00    +0.000 C 
ATOM      8  C19 UNL     1      63.853  51.981  73.585  0.00  0.00    +0.000 A 
ATOM      9  C20 UNL     1      63.591  51.876  72.199  0.00  0.00    +0.000 A 
ATOM     10  O5  UNL     1      62.504  52.461  71.702  0.00  0.00    +0.000 OA
ATOM     11  C21 UNL     1      62.186  52.444  70.418  0.00  0.00    +0.000 A 
ATOM     12  O6  UNL     1      61.143  53.029  70.028  0.00  0.00    +0.000 OA
ATOM     13  C22 UNL     1      62.998  51.785  69.504  0.00  0.00    +0.000 A 
ATOM     14  C23 UNL     1      64.150  51.125  69.950  0.00  0.00    +0.000 A 
ATOM     15  C24 UNL     1      64.978  50.397  68.919  0.00  0.00    +0.000 C 
ATOM     16  C25 UNL     1      64.469  51.157  71.341  0.00  0.00    +0.000 A 
ATOM     17  C26 UNL     1      65.601  50.512  71.907  0.00  0.00    +0.000 A 
ENDROOT
BRANCH   7  18
ATOM     18  C8  UNL     1      62.401  54.053  73.917  0.00  0.00    +0.000 A 
ATOM     19  C9  UNL     1      63.322  55.055  73.511  0.00  0.00    +0.000 A 
ATOM     20  C10 UNL     1      62.854  56.244  72.936  0.00  0.00    +0.000 A 
ATOM     21  C11 UNL     1      63.682  57.289  72.485  0.00  0.00    +0.000 A 
ATOM     22  C12 UNL     1      63.097  58.445  71.915  0.00  0.00    +0.000 A 
ATOM     23  C13 UNL     1      61.695  58.556  71.798  0.00  0.00    +0.000 A 
ATOM     24  C14 UNL     1      60.906  57.498  72.256  0.00  0.00    +0.000 A 
ATOM     25  C15 UNL     1      61.481  56.395  72.800  0.00  0.00    +0.000 A 
ATOM     26  N1  UNL     1      60.605  55.470  73.192  0.00  0.00    +0.000 N 
ATOM     27  C16 UNL     1      59.245  55.929  72.914  0.00  0.00    +0.000 C 
ATOM     28  C17 UNL     1      59.422  57.332  72.264  0.00  0.00    +0.000 C 
ATOM     29  C18 UNL     1      61.009  54.296  73.755  0.00  0.00    +0.000 A 
ATOM     30  O4  UNL     1      60.154  53.444  74.117  0.00  0.00    +0.000 OA
ENDBRANCH   7  18
BRANCH   1  32
ATOM     31  C1  UNL     1      66.568  48.435  74.668  0.00  0.00    +0.000 C 
ATOM     32  C2  UNL     1      66.859  49.708  73.937  0.00  0.00    +0.000 C 
ATOM     33  O1  UNL     1      68.041  50.145  73.912  0.00  0.00    +0.000 OA
ENDBRANCH   1  32
BRANCH  17  34
ATOM     34  O7  UNL     1      66.554  49.908  71.082  0.00  0.00    +0.000 OA
ATOM     35  H19 UNL     1      67.549  50.067  71.165  0.00  0.00    +0.000 HD
ENDBRANCH  17  34
TORSDOF 3
ENDMDL
MODEL 4
REMARK VINA RESULT:    -7.486      2.973      7.198
REMARK INTER + INTRA:          -9.584
REMARK INTER:                  -8.578
REMARK INTRA:                  -1.006
REMARK UNBOUND:                -1.003
REMARK  Name = CNP0124950_0.pdb
REMARK  5 active torsions:
REMARK  status: ('A' for Active; 'I' for Inactive)
REMARK    1  A    between atoms: C1_1  and  C2_2
REMARK    2  A    between atoms: C2_2  and  C3_4
REMARK    3  A    between atoms: C7_10  and  C8_11
REMARK    4  A    between atoms: C23_30  and  C24_31
REMARK    5  A    between atoms: C26_33  and  O7_34
REMARK                            x       y       z     vdW  Elec       q    Type
REMARK                         _______ _______ _______ _____ _____    ______ ____
ROOT
ATOM      1  C3  UNL     1      56.245  52.671  67.369  0.00  0.00    +0.000 A 
ATOM      2  C4  UNL     1      56.312  52.922  68.747  0.00  0.00    +0.000 A 
ATOM      3  O2  UNL     1      55.566  52.118  69.619  0.00  0.00    +0.000 OA
ATOM      4  C5  UNL     1      55.691  52.206  71.001  0.00  0.00    +0.000 C 
ATOM      5  O3  UNL     1      54.902  51.564  71.744  0.00  0.00    +0.000 OA
ATOM      6  C6  UNL     1      56.823  52.975  71.591  0.00  0.00    +0.000 C 
ATOM      7  C7  UNL     1      57.126  54.241  70.762  0.00  0.00    +0.000 C 
ATOM      8  C19 UNL     1      57.082  53.993  69.247  0.00  0.00    +0.000 A 
ATOM      9  C20 UNL     1      57.647  54.910  68.331  0.00  0.00    +0.000 A 
ATOM     10  O5  UNL     1      58.230  56.011  68.798  0.00  0.00    +0.000 OA
ATOM     11  C21 UNL     1      58.811  56.915  68.025  0.00  0.00    +0.000 A 
ATOM     12  O6  UNL     1      59.348  57.926  68.547  0.00  0.00    +0.000 OA
ATOM     13  C22 UNL     1      58.829  56.751  66.647  0.00  0.00    +0.000 A 
ATOM     14  C23 UNL     1      58.218  55.628  66.074  0.00  0.00    +0.000 A 
ATOM     15  C24 UNL     1      58.239  55.517  64.569  0.00  0.00    +0.000 C 
ATOM     16  C25 UNL     1      57.596  54.669  66.930  0.00  0.00    +0.000 A 
ATOM     17  C26 UNL     1      56.934  53.504  66.460  0.00  0.00    +0.000 A 
ENDROOT
BRANCH   7  18
ATOM     18  C8  UNL     1      58.462  54.803  71.234  0.00  0.00    +0.000 A 
ATOM     19  C9  UNL     1      59.632  54.000  71.165  0.00  0.00    +0.000 A 
ATOM     20  C10 UNL     1      60.864  54.522  71.582  0.00  0.00    +0.000 A 
ATOM     21  C11 UNL     1      62.082  53.818  71.539  0.00  0.00    +0.000 A 
ATOM     22  C12 UNL     1      63.268  54.448  71.982  0.00  0.00    +0.000 A 
ATOM     23  C13 UNL     1      63.238  55.774  72.467  0.00  0.00    +0.000 A 
ATOM     24  C14 UNL     1      62.010  56.441  72.494  0.00  0.00    +0.000 A 
ATOM     25  C15 UNL     1      60.881  55.823  72.065  0.00  0.00    +0.000 A 
ATOM     26  N1  UNL     1      59.787  56.582  72.150  0.00  0.00    +0.000 N 
ATOM     27  C16 UNL     1      60.137  57.892  72.697  0.00  0.00    +0.000 C 
ATOM     28  C17 UNL     1      61.672  57.824  72.944  0.00  0.00    +0.000 C 
ATOM     29  C18 UNL     1      58.566  56.122  71.756  0.00  0.00    +0.000 A 
ATOM     30  O4  UNL     1      57.553  56.864  71.854  0.00  0.00    +0.000 OA
ENDBRANCH   7  18
BRANCH   1  32
ATOM     31  C1  UNL     1      53.929  51.632  66.834  0.00  0.00    +0.000 C 
ATOM     32  C2  UNL     1      55.422  51.536  66.894  0.00  0.00    +0.000 C 
ATOM     33  O1  UNL     1      55.979  50.445  66.595  0.00  0.00    +0.000 OA
ENDBRANCH   1  32
BRANCH  17  34
ATOM     34  O7  UNL     1      56.976  53.167  65.104  0.00  0.00    +0.000 OA
ATOM     35  H19 UNL     1      57.733  53.424  64.485  0.00  0.00    +0.000 HD
ENDBRANCH  17  34
TORSDOF 3
ENDMDL
MODEL 5
REMARK VINA RESULT:    -7.344      0.839      1.904
REMARK INTER + INTRA:          -9.420
REMARK INTER:                  -8.964
REMARK INTRA:                  -0.456
REMARK UNBOUND:                -1.003
REMARK  Name = CNP0124950_0.pdb
REMARK  5 active torsions:
REMARK  status: ('A' for Active; 'I' for Inactive)
REMARK    1  A    between atoms: C1_1  and  C2_2
REMARK    2  A    between atoms: C2_2  and  C3_4
REMARK    3  A    between atoms: C7_10  and  C8_11
REMARK    4  A    between atoms: C23_30  and  C24_31
REMARK    5  A    between atoms: C26_33  and  O7_34
REMARK                            x       y       z     vdW  Elec       q    Type
REMARK                         _______ _______ _______ _____ _____    ______ ____
ROOT
ATOM      1  C3  UNL     1      61.731  56.897  71.251  0.00  0.00    +0.000 A 
ATOM      2  C4  UNL     1      61.722  55.597  70.725  0.00  0.00    +0.000 A 
ATOM      3  O2  UNL     1      62.528  54.620  71.324  0.00  0.00    +0.000 OA
ATOM      4  C5  UNL     1      62.464  53.280  70.959  0.00  0.00    +0.000 C 
ATOM      5  O3  UNL     1      63.303  52.463  71.423  0.00  0.00    +0.000 OA
ATOM      6  C6  UNL     1      61.341  52.802  70.102  0.00  0.00    +0.000 C 
ATOM      7  C7  UNL     1      60.968  53.853  69.037  0.00  0.00    +0.000 C 
ATOM      8  C19 UNL     1      60.949  55.287  69.588  0.00  0.00    +0.000 A 
ATOM      9  C20 UNL     1      60.319  56.340  68.885  0.00  0.00    +0.000 A 
ATOM     10  O5  UNL     1      59.730  56.078  67.721  0.00  0.00    +0.000 OA
ATOM     11  C21 UNL     1      59.092  56.986  67.003  0.00  0.00    +0.000 A 
ATOM     12  O6  UNL     1      58.554  56.654  65.915  0.00  0.00    +0.000 OA
ATOM     13  C22 UNL     1      59.014  58.300  67.444  0.00  0.00    +0.000 A 
ATOM     14  C23 UNL     1      59.626  58.664  68.650  0.00  0.00    +0.000 A 
ATOM     15  C24 UNL     1      59.539  60.112  69.066  0.00  0.00    +0.000 C 
ATOM     16  C25 UNL     1      60.311  57.664  69.405  0.00  0.00    +0.000 A 
ATOM     17  C26 UNL     1      60.980  57.921  70.631  0.00  0.00    +0.000 A 
ENDROOT
BRANCH   7  18
ATOM     18  C8  UNL     1      59.642  53.438  68.412  0.00  0.00    +0.000 A 
ATOM     19  C9  UNL     1      59.586  53.089  67.036  0.00  0.00    +0.000 A 
ATOM     20  C10 UNL     1      58.371  52.689  66.464  0.00  0.00    +0.000 A 
ATOM     21  C11 UNL     1      58.213  52.308  65.119  0.00  0.00    +0.000 A 
ATOM     22  C12 UNL     1      56.936  51.916  64.651  0.00  0.00    +0.000 A 
ATOM     23  C13 UNL     1      55.824  51.908  65.521  0.00  0.00    +0.000 A 
ATOM     24  C14 UNL     1      56.021  52.292  66.850  0.00  0.00    +0.000 A 
ATOM     25  C15 UNL     1      57.252  52.665  67.284  0.00  0.00    +0.000 A 
ATOM     26  N1  UNL     1      57.287  53.005  68.573  0.00  0.00    +0.000 N 
ATOM     27  C16 UNL     1      55.951  52.874  69.155  0.00  0.00    +0.000 C 
ATOM     28  C17 UNL     1      55.053  52.381  67.983  0.00  0.00    +0.000 C 
ATOM     29  C18 UNL     1      58.444  53.399  69.177  0.00  0.00    +0.000 A 
ATOM     30  O4  UNL     1      58.440  53.717  70.396  0.00  0.00    +0.000 OA
ENDBRANCH   7  18
BRANCH   1  32
ATOM     31  C1  UNL     1      64.053  57.246  72.355  0.00  0.00    +0.000 C 
ATOM     32  C2  UNL     1      62.560  57.174  72.446  0.00  0.00    +0.000 C 
ATOM     33  O1  UNL     1      62.009  57.287  73.574  0.00  0.00    +0.000 OA
ENDBRANCH   1  32
BRANCH  17  34
ATOM     34  O7  UNL     1      60.884  59.177  71.238  0.00  0.00    +0.000 OA
ATOM     35  H19 UNL     1      60.007  59.630  71.453  0.00  0.00    +0.000 HD
ENDBRANCH  17  34
TORSDOF 3
ENDMDL
MODEL 6
REMARK VINA RESULT:    -7.009      3.769      4.827
REMARK INTER + INTRA:          -9.036
REMARK INTER:                  -8.100
REMARK INTRA:                  -0.936
REMARK UNBOUND:                -1.003
REMARK  Name = CNP0124950_0.pdb
REMARK  5 active torsions:
REMARK  status: ('A' for Active; 'I' for Inactive)
REMARK    1  A    between atoms: C1_1  and  C2_2
REMARK    2  A    between atoms: C2_2  and  C3_4
REMARK    3  A    between atoms: C7_10  and  C8_11
REMARK    4  A    between atoms: C23_30  and  C24_31
REMARK    5  A    between atoms: C26_33  and  O7_34
REMARK                            x       y       z     vdW  Elec       q    Type
REMARK                         _______ _______ _______ _____ _____    ______ ____
ROOT
ATOM      1  C3  UNL     1      60.724  56.702  71.424  0.00  0.00    +0.000 A 
ATOM      2  C4  UNL     1      60.480  55.605  72.263  0.00  0.00    +0.000 A 
ATOM      3  O2  UNL     1      61.348  55.368  73.337  0.00  0.00    +0.000 OA
ATOM      4  C5  UNL     1      61.093  54.396  74.297  0.00  0.00    +0.000 C 
ATOM      5  O3  UNL     1      61.967  54.125  75.163  0.00  0.00    +0.000 OA
ATOM      6  C6  UNL     1      59.748  53.756  74.360  0.00  0.00    +0.000 C 
ATOM      7  C7  UNL     1      59.172  53.535  72.946  0.00  0.00    +0.000 C 
ATOM      8  C19 UNL     1      59.405  54.728  72.008  0.00  0.00    +0.000 A 
ATOM      9  C20 UNL     1      58.682  54.872  70.801  0.00  0.00    +0.000 A 
ATOM     10  O5  UNL     1      57.780  53.950  70.475  0.00  0.00    +0.000 OA
ATOM     11  C21 UNL     1      57.035  54.008  69.384  0.00  0.00    +0.000 A 
ATOM     12  O6  UNL     1      56.197  53.097  69.153  0.00  0.00    +0.000 OA
ATOM     13  C22 UNL     1      57.173  55.067  68.497  0.00  0.00    +0.000 A 
ATOM     14  C23 UNL     1      58.116  56.070  68.755  0.00  0.00    +0.000 A 
ATOM     15  C24 UNL     1      58.247  57.179  67.741  0.00  0.00    +0.000 C 
ATOM     16  C25 UNL     1      58.910  55.981  69.940  0.00  0.00    +0.000 A 
ATOM     17  C26 UNL     1      59.905  56.929  70.295  0.00  0.00    +0.000 A 
ENDROOT
BRANCH   7  18
ATOM     18  C8  UNL     1      57.700  53.170  73.090  0.00  0.00    +0.000 A 
ATOM     19  C9  UNL     1      56.790  54.105  73.651  0.00  0.00    +0.000 A 
ATOM     20  C10 UNL     1      55.432  53.778  73.767  0.00  0.00    +0.000 A 
ATOM     21  C11 UNL     1      54.448  54.637  74.291  0.00  0.00    +0.000 A 
ATOM     22  C12 UNL     1      53.104  54.201  74.356  0.00  0.00    +0.000 A 
ATOM     23  C13 UNL     1      52.745  52.913  73.901  0.00  0.00    +0.000 A 
ATOM     24  C14 UNL     1      53.749  52.089  73.387  0.00  0.00    +0.000 A 
ATOM     25  C15 UNL     1      55.034  52.521  73.331  0.00  0.00    +0.000 A 
ATOM     26  N1  UNL     1      55.880  51.628  72.818  0.00  0.00    +0.000 N 
ATOM     27  C16 UNL     1      55.154  50.411  72.457  0.00  0.00    +0.000 C 
ATOM     28  C17 UNL     1      53.674  50.702  72.840  0.00  0.00    +0.000 C 
ATOM     29  C18 UNL     1      57.209  51.899  72.681  0.00  0.00    +0.000 A 
ATOM     30  O4  UNL     1      57.982  51.030  72.196  0.00  0.00    +0.000 OA
ENDBRANCH   7  18
BRANCH   1  32
ATOM     31  C1  UNL     1      63.276  57.095  71.668  0.00  0.00    +0.000 C 
ATOM     32  C2  UNL     1      61.865  57.592  71.733  0.00  0.00    +0.000 C 
ATOM     33  O1  UNL     1      61.648  58.771  72.121  0.00  0.00    +0.000 OA
ENDBRANCH   1  32
BRANCH  17  34
ATOM     34  O7  UNL     1      60.067  58.097  69.544  0.00  0.00    +0.000 OA
ATOM     35  H19 UNL     1      59.628  58.253  68.647  0.00  0.00    +0.000 HD
ENDBRANCH  17  34
TORSDOF 3
ENDMDL
MODEL 7
REMARK VINA RESULT:    -6.775      4.894      7.193
REMARK INTER + INTRA:          -8.768
REMARK INTER:                  -7.872
REMARK INTRA:                  -0.895
REMARK UNBOUND:                -1.003
REMARK  Name = CNP0124950_0.pdb
REMARK  5 active torsions:
REMARK  status: ('A' for Active; 'I' for Inactive)
REMARK    1  A    between atoms: C1_1  and  C2_2
REMARK    2  A    between atoms: C2_2  and  C3_4
REMARK    3  A    between atoms: C7_10  and  C8_11
REMARK    4  A    between atoms: C23_30  and  C24_31
REMARK    5  A    between atoms: C26_33  and  O7_34
REMARK                            x       y       z     vdW  Elec       q    Type
REMARK                         _______ _______ _______ _____ _____    ______ ____
ROOT
ATOM      1  C3  UNL     1      58.996  56.305  72.615  0.00  0.00    +0.000 A 
ATOM      2  C4  UNL     1      59.261  55.077  73.238  0.00  0.00    +0.000 A 
ATOM      3  O2  UNL     1      58.188  54.325  73.734  0.00  0.00    +0.000 OA
ATOM      4  C5  UNL     1      58.350  53.036  74.229  0.00  0.00    +0.000 C 
ATOM      5  O3  UNL     1      57.386  52.454  74.792  0.00  0.00    +0.000 OA
ATOM      6  C6  UNL     1      59.634  52.314  73.997  0.00  0.00    +0.000 C 
ATOM      7  C7  UNL     1      60.837  53.275  74.092  0.00  0.00    +0.000 C 
ATOM      8  C19 UNL     1      60.586  54.623  73.401  0.00  0.00    +0.000 A 
ATOM      9  C20 UNL     1      61.649  55.500  73.082  0.00  0.00    +0.000 A 
ATOM     10  O5  UNL     1      62.893  55.144  73.390  0.00  0.00    +0.000 OA
ATOM     11  C21 UNL     1      63.956  55.880  73.110  0.00  0.00    +0.000 A 
ATOM     12  O6  UNL     1      65.101  55.466  73.428  0.00  0.00    +0.000 OA
ATOM     13  C22 UNL     1      63.812  57.102  72.467  0.00  0.00    +0.000 A 
ATOM     14  C23 UNL     1      62.532  57.561  72.128  0.00  0.00    +0.000 A 
ATOM     15  C24 UNL     1      62.432  58.911  71.461  0.00  0.00    +0.000 C 
ATOM     16  C25 UNL     1      61.402  56.747  72.444  0.00  0.00    +0.000 A 
ATOM     17  C26 UNL     1      60.060  57.117  72.162  0.00  0.00    +0.000 A 
ENDROOT
BRANCH   7  18
ATOM     18  C8  UNL     1      62.063  52.548  73.552  0.00  0.00    +0.000 A 
ATOM     19  C9  UNL     1      62.200  52.334  72.155  0.00  0.00    +0.000 A 
ATOM     20  C10 UNL     1      63.336  51.682  71.655  0.00  0.00    +0.000 A 
ATOM     21  C11 UNL     1      63.576  51.437  70.290  0.00  0.00    +0.000 A 
ATOM     22  C12 UNL     1      64.763  50.772  69.900  0.00  0.00    +0.000 A 
ATOM     23  C13 UNL     1      65.703  50.355  70.867  0.00  0.00    +0.000 A 
ATOM     24  C14 UNL     1      65.430  50.617  72.212  0.00  0.00    +0.000 A 
ATOM     25  C15 UNL     1      64.287  51.256  72.571  0.00  0.00    +0.000 A 
ATOM     26  N1  UNL     1      64.163  51.436  73.887  0.00  0.00    +0.000 N 
ATOM     27  C16 UNL     1      65.326  50.876  74.573  0.00  0.00    +0.000 C 
ATOM     28  C17 UNL     1      66.222  50.302  73.437  0.00  0.00    +0.000 C 
ATOM     29  C18 UNL     1      63.079  52.066  74.422  0.00  0.00    +0.000 A 
ATOM     30  O4  UNL     1      62.992  52.216  75.670  0.00  0.00    +0.000 OA
ENDBRANCH   7  18
BRANCH   1  32
ATOM     31  C1  UNL     1      56.819  57.284  73.632  0.00  0.00    +0.000 C 
ATOM     32  C2  UNL     1      57.588  56.738  72.469  0.00  0.00    +0.000 C 
ATOM     33  O1  UNL     1      57.002  56.587  71.363  0.00  0.00    +0.000 OA
ENDBRANCH   1  32
BRANCH  17  34
ATOM     34  O7  UNL     1      59.787  58.271  71.421  0.00  0.00    +0.000 OA
ATOM     35  H19 UNL     1      58.950  58.398  70.869  0.00  0.00    +0.000 HD
ENDBRANCH  17  34
TORSDOF 3
ENDMDL
MODEL 8
REMARK VINA RESULT:    -6.757      3.428      7.422
REMARK INTER + INTRA:          -8.747
REMARK INTER:                  -7.703
REMARK INTRA:                  -1.045
REMARK UNBOUND:                -1.003
REMARK  Name = CNP0124950_0.pdb
REMARK  5 active torsions:
REMARK  status: ('A' for Active; 'I' for Inactive)
REMARK    1  A    between atoms: C1_1  and  C2_2
REMARK    2  A    between atoms: C2_2  and  C3_4
REMARK    3  A    between atoms: C7_10  and  C8_11
REMARK    4  A    between atoms: C23_30  and  C24_31
REMARK    5  A    between atoms: C26_33  and  O7_34
REMARK                            x       y       z     vdW  Elec       q    Type
REMARK                         _______ _______ _______ _____ _____    ______ ____
ROOT
ATOM      1  C3  UNL     1      60.374  55.700  68.611  0.00  0.00    +0.000 A 
ATOM      2  C4  UNL     1      60.885  56.241  69.799  0.00  0.00    +0.000 A 
ATOM      3  O2  UNL     1      60.825  57.628  69.993  0.00  0.00    +0.000 OA
ATOM      4  C5  UNL     1      61.172  58.225  71.199  0.00  0.00    +0.000 C 
ATOM      5  O3  UNL     1      61.236  59.480  71.282  0.00  0.00    +0.000 OA
ATOM      6  C6  UNL     1      61.366  57.379  72.412  0.00  0.00    +0.000 C 
ATOM      7  C7  UNL     1      62.044  56.040  72.053  0.00  0.00    +0.000 C 
ATOM      8  C19 UNL     1      61.490  55.412  70.766  0.00  0.00    +0.000 A 
ATOM      9  C20 UNL     1      61.726  54.054  70.446  0.00  0.00    +0.000 A 
ATOM     10  O5  UNL     1      62.443  53.309  71.283  0.00  0.00    +0.000 OA
ATOM     11  C21 UNL     1      62.695  52.026  71.087  0.00  0.00    +0.000 A 
ATOM     12  O6  UNL     1      63.377  51.390  71.933  0.00  0.00    +0.000 OA
ATOM     13  C22 UNL     1      62.212  51.381  69.957  0.00  0.00    +0.000 A 
ATOM     14  C23 UNL     1      61.465  52.100  69.015  0.00  0.00    +0.000 A 
ATOM     15  C24 UNL     1      60.992  51.357  67.789  0.00  0.00    +0.000 C 
ATOM     16  C25 UNL     1      61.209  53.485  69.249  0.00  0.00    +0.000 A 
ATOM     17  C26 UNL     1      60.479  54.314  68.357  0.00  0.00    +0.000 A 
ENDROOT
BRANCH   7  18
ATOM     18  C8  UNL     1      61.932  55.119  73.262  0.00  0.00    +0.000 A 
ATOM     19  C9  UNL     1      60.653  54.757  73.761  0.00  0.00    +0.000 A 
ATOM     20  C10 UNL     1      60.549  53.895  74.861  0.00  0.00    +0.000 A 
ATOM     21  C11 UNL     1      59.332  53.462  75.420  0.00  0.00    +0.000 A 
ATOM     22  C12 UNL     1      59.348  52.584  76.530  0.00  0.00    +0.000 A 
ATOM     23  C13 UNL     1      60.572  52.144  77.079  0.00  0.00    +0.000 A 
ATOM     24  C14 UNL     1      61.759  52.595  76.496  0.00  0.00    +0.000 A 
ATOM     25  C15 UNL     1      61.728  53.436  75.431  0.00  0.00    +0.000 A 
ATOM     26  N1  UNL     1      62.936  53.780  74.983  0.00  0.00    +0.000 N 
ATOM     27  C16 UNL     1      63.966  53.134  75.794  0.00  0.00    +0.000 C 
ATOM     28  C17 UNL     1      63.180  52.304  76.851  0.00  0.00    +0.000 C 
ATOM     29  C18 UNL     1      63.090  54.614  73.915  0.00  0.00    +0.000 A 
ATOM     30  O4  UNL     1      64.246  54.923  73.520  0.00  0.00    +0.000 OA
ENDBRANCH   7  18
BRANCH   1  32
ATOM     31  C1  UNL     1      58.378  57.172  67.847  0.00  0.00    +0.000 C 
ATOM     32  C2  UNL     1      59.750  56.613  67.627  0.00  0.00    +0.000 C 
ATOM     33  O1  UNL     1      60.354  56.877  66.553  0.00  0.00    +0.000 OA
ENDBRANCH   1  32
BRANCH  17  34
ATOM     34  O7  UNL     1      59.846  53.763  67.239  0.00  0.00    +0.000 OA
ATOM     35  H19 UNL     1      60.047  54.041  66.288  0.00  0.00    +0.000 HD
ENDBRANCH  17  34
TORSDOF 3
ENDMDL
MODEL 9
REMARK VINA RESULT:    -6.721      4.074      5.086
REMARK INTER + INTRA:          -8.707
REMARK INTER:                  -8.039
REMARK INTRA:                  -0.668
REMARK UNBOUND:                -1.003
REMARK  Name = CNP0124950_0.pdb
REMARK  5 active torsions:
REMARK  status: ('A' for Active; 'I' for Inactive)
REMARK    1  A    between atoms: C1_1  and  C2_2
REMARK    2  A    between atoms: C2_2  and  C3_4
REMARK    3  A    between atoms: C7_10  and  C8_11
REMARK    4  A    between atoms: C23_30  and  C24_31
REMARK    5  A    between atoms: C26_33  and  O7_34
REMARK                            x       y       z     vdW  Elec       q    Type
REMARK                         _______ _______ _______ _____ _____    ______ ____
ROOT
ATOM      1  C3  UNL     1      62.268  56.692  72.381  0.00  0.00    +0.000 A 
ATOM      2  C4  UNL     1      61.803  55.475  72.900  0.00  0.00    +0.000 A 
ATOM      3  O2  UNL     1      62.686  54.669  73.631  0.00  0.00    +0.000 OA
ATOM      4  C5  UNL     1      62.265  53.526  74.301  0.00  0.00    +0.000 C 
ATOM      5  O3  UNL     1      63.115  52.758  74.826  0.00  0.00    +0.000 OA
ATOM      6  C6  UNL     1      60.807  53.273  74.484  0.00  0.00    +0.000 C 
ATOM      7  C7  UNL     1      60.007  53.708  73.238  0.00  0.00    +0.000 C 
ATOM      8  C19 UNL     1      60.481  55.048  72.658  0.00  0.00    +0.000 A 
ATOM      9  C20 UNL     1      59.687  55.779  71.743  0.00  0.00    +0.000 A 
ATOM     10  O5  UNL     1      58.503  55.290  71.383  0.00  0.00    +0.000 OA
ATOM     11  C21 UNL     1      57.676  55.910  70.557  0.00  0.00    +0.000 A 
ATOM     12  O6  UNL     1      56.570  55.383  70.272  0.00  0.00    +0.000 OA
ATOM     13  C22 UNL     1      58.025  57.136  70.006  0.00  0.00    +0.000 A 
ATOM     14  C23 UNL     1      59.264  57.710  70.318  0.00  0.00    +0.000 A 
ATOM     15  C24 UNL     1      59.605  59.027  69.666  0.00  0.00    +0.000 C 
ATOM     16  C25 UNL     1      60.138  57.019  71.211  0.00  0.00    +0.000 A 
ATOM     17  C26 UNL     1      61.422  57.497  71.585  0.00  0.00    +0.000 A 
ENDROOT
BRANCH   7  18
ATOM     18  C8  UNL     1      58.529  53.707  73.606  0.00  0.00    +0.000 A 
ATOM     19  C9  UNL     1      58.065  54.516  74.678  0.00  0.00    +0.000 A 
ATOM     20  C10 UNL     1      56.703  54.530  75.006  0.00  0.00    +0.000 A 
ATOM     21  C11 UNL     1      56.140  55.307  76.036  0.00  0.00    +0.000 A 
ATOM     22  C12 UNL     1      54.747  55.246  76.274  0.00  0.00    +0.000 A 
ATOM     23  C13 UNL     1      53.921  54.412  75.489  0.00  0.00    +0.000 A 
ATOM     24  C14 UNL     1      54.515  53.656  74.475  0.00  0.00    +0.000 A 
ATOM     25  C15 UNL     1      55.853  53.726  74.258  0.00  0.00    +0.000 A 
ATOM     26  N1  UNL     1      56.277  52.950  73.260  0.00  0.00    +0.000 N 
ATOM     27  C16 UNL     1      55.144  52.233  72.677  0.00  0.00    +0.000 C 
ATOM     28  C17 UNL     1      53.909  52.703  73.499  0.00  0.00    +0.000 C 
ATOM     29  C18 UNL     1      57.592  52.902  72.901  0.00  0.00    +0.000 A 
ATOM     30  O4  UNL     1      57.959  52.155  71.955  0.00  0.00    +0.000 OA
ENDBRANCH   7  18
BRANCH   1  32
ATOM     31  C1  UNL     1      64.237  56.998  74.042  0.00  0.00    +0.000 C 
ATOM     32  C2  UNL     1      63.665  57.095  72.662  0.00  0.00    +0.000 C 
ATOM     33  O1  UNL     1      64.367  57.590  71.741  0.00  0.00    +0.000 OA
ENDBRANCH   1  32
BRANCH  17  34
ATOM     34  O7  UNL     1      61.846  58.768  71.187  0.00  0.00    +0.000 OA
ATOM     35  H19 UNL     1      62.737  59.169  71.446  0.00  0.00    +0.000 HD
ENDBRANCH  17  34
TORSDOF 3
ENDMDL
MODEL 10
REMARK VINA RESULT:    -6.494      4.360      8.022
REMARK INTER + INTRA:          -8.446
REMARK INTER:                  -7.499
REMARK INTRA:                  -0.947
REMARK UNBOUND:                -1.003
REMARK  Name = CNP0124950_0.pdb
REMARK  5 active torsions:
REMARK  status: ('A' for Active; 'I' for Inactive)
REMARK    1  A    between atoms: C1_1  and  C2_2
REMARK    2  A    between atoms: C2_2  and  C3_4
REMARK    3  A    between atoms: C7_10  and  C8_11
REMARK    4  A    between atoms: C23_30  and  C24_31
REMARK    5  A    between atoms: C26_33  and  O7_34
REMARK                            x       y       z     vdW  Elec       q    Type
REMARK                         _______ _______ _______ _____ _____    ______ ____
ROOT
ATOM      1  C3  UNL     1      58.787  55.659  72.167  0.00  0.00    +0.000 A 
ATOM      2  C4  UNL     1      60.189  55.646  72.116  0.00  0.00    +0.000 A 
ATOM      3  O2  UNL     1      60.863  56.817  71.743  0.00  0.00    +0.000 OA
ATOM      4  C5  UNL     1      62.247  56.930  71.812  0.00  0.00    +0.000 C 
ATOM      5  O3  UNL     1      62.818  57.947  71.335  0.00  0.00    +0.000 OA
ATOM      6  C6  UNL     1      63.036  55.896  72.541  0.00  0.00    +0.000 C 
ATOM      7  C7  UNL     1      62.442  54.489  72.325  0.00  0.00    +0.000 C 
ATOM      8  C19 UNL     1      60.908  54.466  72.395  0.00  0.00    +0.000 A 
ATOM      9  C20 UNL     1      60.194  53.256  72.558  0.00  0.00    +0.000 A 
ATOM     10  O5  UNL     1      60.871  52.115  72.654  0.00  0.00    +0.000 OA
ATOM     11  C21 UNL     1      60.297  50.937  72.835  0.00  0.00    +0.000 A 
ATOM     12  O6  UNL     1      61.012  49.904  72.923  0.00  0.00    +0.000 OA
ATOM     13  C22 UNL     1      58.916  50.837  72.929  0.00  0.00    +0.000 A 
ATOM     14  C23 UNL     1      58.128  51.990  72.817  0.00  0.00    +0.000 A 
ATOM     15  C24 UNL     1      56.631  51.819  72.892  0.00  0.00    +0.000 C 
ATOM     16  C25 UNL     1      58.772  53.249  72.619  0.00  0.00    +0.000 A 
ATOM     17  C26 UNL     1      58.076  54.478  72.476  0.00  0.00    +0.000 A 
ENDROOT
BRANCH   7  18
ATOM     18  C8  UNL     1      63.098  53.544  73.325  0.00  0.00    +0.000 A 
ATOM     19  C9  UNL     1      63.009  53.813  74.717  0.00  0.00    +0.000 A 
ATOM     20  C10 UNL     1      63.596  52.935  75.639  0.00  0.00    +0.000 A 
ATOM     21  C11 UNL     1      63.550  53.101  77.035  0.00  0.00    +0.000 A 
ATOM     22  C12 UNL     1      64.176  52.145  77.871  0.00  0.00    +0.000 A 
ATOM     23  C13 UNL     1      64.843  51.033  77.315  0.00  0.00    +0.000 A 
ATOM     24  C14 UNL     1      64.867  50.902  75.924  0.00  0.00    +0.000 A 
ATOM     25  C15 UNL     1      64.262  51.826  75.135  0.00  0.00    +0.000 A 
ATOM     26  N1  UNL     1      64.367  51.570  73.830  0.00  0.00    +0.000 N 
ATOM     27  C16 UNL     1      65.124  50.336  73.629  0.00  0.00    +0.000 C 
ATOM     28  C17 UNL     1      65.483  49.849  75.063  0.00  0.00    +0.000 C 
ATOM     29  C18 UNL     1      63.812  52.392  72.895  0.00  0.00    +0.000 A 
ATOM     30  O4  UNL     1      63.933  52.122  71.670  0.00  0.00    +0.000 OA
ENDBRANCH   7  18
BRANCH   1  32
ATOM     31  C1  UNL     1      58.082  57.504  70.484  0.00  0.00    +0.000 C 
ATOM     32  C2  UNL     1      58.078  56.923  71.864  0.00  0.00    +0.000 C 
ATOM     33  O1  UNL     1      57.513  57.557  72.795  0.00  0.00    +0.000 OA
ENDBRANCH   1  32
BRANCH  17  34
ATOM     34  O7  UNL     1      56.691  54.530  72.660  0.00  0.00    +0.000 OA
ATOM     35  H19 UNL     1      56.249  54.870  73.502  0.00  0.00    +0.000 HD
ENDBRANCH  17  34
TORSDOF 3
ENDMDL
