MODEL 1
REMARK VINA RESULT:    -8.066      0.000      0.000
REMARK INTER + INTRA:         -10.376
REMARK INTER:                  -9.009
REMARK INTRA:                  -1.368
REMARK UNBOUND:                -1.368
REMARK  Name = CNP0357158_1.pdb
REMARK  3 active torsions:
REMARK  status: ('A' for Active; 'I' for Inactive)
REMARK    1  A    between atoms: C1_1  and  C2_2
REMARK    2  A    between atoms: C14_18  and  C15_19
REMARK    3  A    between atoms: C15_19  and  C16_20
REMARK                            x       y       z     vdW  Elec       q    Type
REMARK                         _______ _______ _______ _____ _____    ______ ____
ROOT
ATOM      1  C1  UNL     1      23.149  38.255  35.099  0.00  0.00    +0.000 C 
ATOM      2  C2  UNL     1      21.813  38.312  35.869  0.00  0.00    +0.000 C 
ATOM      3  N1  UNL     1      21.616  39.664  36.433  0.00  0.00    +0.000 N 
ATOM      4  C3  UNL     1      20.464  39.789  37.277  0.00  0.00    +0.000 C 
ATOM      5  O1  UNL     1      20.159  40.868  37.847  0.00  0.00    +0.000 OA
ATOM      6  C4  UNL     1      19.662  38.525  37.408  0.00  0.00    +0.000 C 
ATOM      7  C5  UNL     1      19.227  38.199  35.954  0.00  0.00    +0.000 C 
ATOM      8  C6  UNL     1      20.512  37.937  35.036  0.00  0.00    +0.000 C 
ATOM      9  C7  UNL     1      20.381  38.733  33.756  0.00  0.00    +0.000 A 
ATOM     10  C8  UNL     1      20.325  40.123  33.585  0.00  0.00    +0.000 A 
ATOM     11  C9  UNL     1      20.098  40.639  32.299  0.00  0.00    +0.000 A 
ATOM     12  C10 UNL     1      19.906  39.771  31.210  0.00  0.00    +0.000 A 
ATOM     13  C11 UNL     1      19.930  38.382  31.403  0.00  0.00    +0.000 A 
ATOM     14  C12 UNL     1      20.166  37.894  32.691  0.00  0.00    +0.000 A 
ATOM     15  N2  UNL     1      20.198  36.535  33.075  0.00  0.00    +0.000 N 
ATOM     16  C13 UNL     1      19.143  35.629  32.869  0.00  0.00    +0.000 C 
ATOM     17  O2  UNL     1      18.498  35.546  31.790  0.00  0.00    +0.000 OA
ATOM     18  C14 UNL     1      18.842  34.861  34.099  0.00  0.00    +0.000 C 
ATOM     19  N4  UNL     1      19.676  35.496  35.142  0.00  0.00    +0.000 NA
ATOM     20  C24 UNL     1      20.584  36.452  34.471  0.00  0.00    +0.000 C 
ATOM     21  N5  UNL     1      20.617  37.472  37.830  0.00  0.00    +0.000 N 
ATOM     22  C25 UNL     1      21.753  37.371  37.063  0.00  0.00    +0.000 A 
ATOM     23  N6  UNL     1      22.684  36.416  37.317  0.00  0.00    +0.000 NA
ATOM     24  C26 UNL     1      22.519  35.551  38.351  0.00  0.00    +0.000 A 
ATOM     25  C27 UNL     1      23.490  34.577  38.605  0.00  0.00    +0.000 A 
ATOM     26  C28 UNL     1      23.320  33.676  39.660  0.00  0.00    +0.000 A 
ATOM     27  C29 UNL     1      22.177  33.741  40.463  0.00  0.00    +0.000 A 
ATOM     28  C30 UNL     1      21.198  34.708  40.215  0.00  0.00    +0.000 A 
ATOM     29  C31 UNL     1      21.361  35.624  39.159  0.00  0.00    +0.000 A 
ATOM     30  C32 UNL     1      20.400  36.611  38.868  0.00  0.00    +0.000 A 
ATOM     31  O3  UNL     1      19.345  36.696  39.552  0.00  0.00    +0.000 OA
ATOM     32  H4  UNL     1      22.261  40.466  36.250  0.00  0.00    +0.000 HD
ATOM     33  H21 UNL     1      20.242  34.795  35.675  0.00  0.00    +0.000 HD
ENDROOT
BRANCH  18  34
ATOM     34  C15 UNL     1      19.168  33.362  33.933  0.00  0.00    +0.000 C 
BRANCH  34  35
ATOM     35  C16 UNL     1      18.347  32.515  34.861  0.00  0.00    +0.000 A 
ATOM     36  C17 UNL     1      17.161  31.860  34.541  0.00  0.00    +0.000 A 
ATOM     37  N3  UNL     1      16.715  31.144  35.598  0.00  0.00    +0.000 N 
ATOM     38  C18 UNL     1      17.613  31.336  36.581  0.00  0.00    +0.000 A 
ATOM     39  C19 UNL     1      17.588  30.792  37.863  0.00  0.00    +0.000 A 
ATOM     40  C20 UNL     1      18.644  31.113  38.735  0.00  0.00    +0.000 A 
ATOM     41  C21 UNL     1      19.687  31.966  38.312  0.00  0.00    +0.000 A 
ATOM     42  C22 UNL     1      19.686  32.504  37.012  0.00  0.00    +0.000 A 
ATOM     43  C23 UNL     1      18.625  32.166  36.169  0.00  0.00    +0.000 A 
ATOM     44  H16 UNL     1      15.853  30.557  35.635  0.00  0.00    +0.000 HD
ENDBRANCH  34  35
ENDBRANCH  18  34
TORSDOF 2
ENDMDL
MODEL 2
REMARK VINA RESULT:    -7.778      1.915      5.357
REMARK INTER + INTRA:         -10.055
REMARK INTER:                  -8.493
REMARK INTRA:                  -1.562
REMARK UNBOUND:                -1.368
REMARK  Name = CNP0357158_1.pdb
REMARK  3 active torsions:
REMARK  status: ('A' for Active; 'I' for Inactive)
REMARK    1  A    between atoms: C1_1  and  C2_2
REMARK    2  A    between atoms: C14_18  and  C15_19
REMARK    3  A    between atoms: C15_19  and  C16_20
REMARK                            x       y       z     vdW  Elec       q    Type
REMARK                         _______ _______ _______ _____ _____    ______ ____
ROOT
ATOM      1  C1  UNL     1      17.462  36.691  33.876  0.00  0.00    +0.000 C 
ATOM      2  C2  UNL     1      18.952  36.288  33.866  0.00  0.00    +0.000 C 
ATOM      3  N1  UNL     1      19.537  36.560  32.537  0.00  0.00    +0.000 N 
ATOM      4  C3  UNL     1      20.886  36.101  32.382  0.00  0.00    +0.000 C 
ATOM      5  O1  UNL     1      21.527  36.240  31.308  0.00  0.00    +0.000 OA
ATOM      6  C4  UNL     1      21.457  35.453  33.611  0.00  0.00    +0.000 C 
ATOM      7  C5  UNL     1      21.391  36.565  34.693  0.00  0.00    +0.000 C 
ATOM      8  C6  UNL     1      19.871  36.992  34.956  0.00  0.00    +0.000 C 
ATOM      9  C7  UNL     1      19.765  38.502  34.931  0.00  0.00    +0.000 A 
ATOM     10  C8  UNL     1      20.013  39.384  33.871  0.00  0.00    +0.000 A 
ATOM     11  C9  UNL     1      19.948  40.766  34.111  0.00  0.00    +0.000 A 
ATOM     12  C10 UNL     1      19.663  41.250  35.400  0.00  0.00    +0.000 A 
ATOM     13  C11 UNL     1      19.452  40.354  36.458  0.00  0.00    +0.000 A 
ATOM     14  C12 UNL     1      19.514  38.985  36.191  0.00  0.00    +0.000 A 
ATOM     15  N2  UNL     1      19.356  37.944  37.133  0.00  0.00    +0.000 N 
ATOM     16  C13 UNL     1      20.130  37.804  38.298  0.00  0.00    +0.000 C 
ATOM     17  O2  UNL     1      20.413  38.764  39.064  0.00  0.00    +0.000 OA
ATOM     18  C14 UNL     1      20.633  36.421  38.452  0.00  0.00    +0.000 C 
ATOM     19  N4  UNL     1      20.260  35.751  37.187  0.00  0.00    +0.000 NA
ATOM     20  C24 UNL     1      19.380  36.672  36.434  0.00  0.00    +0.000 C 
ATOM     21  N5  UNL     1      20.494  34.396  34.006  0.00  0.00    +0.000 N 
ATOM     22  C25 UNL     1      19.187  34.805  34.109  0.00  0.00    +0.000 A 
ATOM     23  N6  UNL     1      18.216  33.944  34.507  0.00  0.00    +0.000 NA
ATOM     24  C26 UNL     1      18.517  32.651  34.793  0.00  0.00    +0.000 A 
ATOM     25  C27 UNL     1      17.504  31.773  35.195  0.00  0.00    +0.000 A 
ATOM     26  C28 UNL     1      17.810  30.444  35.502  0.00  0.00    +0.000 A 
ATOM     27  C29 UNL     1      19.129  29.987  35.414  0.00  0.00    +0.000 A 
ATOM     28  C30 UNL     1      20.149  30.857  35.016  0.00  0.00    +0.000 A 
ATOM     29  C31 UNL     1      19.852  32.196  34.700  0.00  0.00    +0.000 A 
ATOM     30  C32 UNL     1      20.846  33.110  34.301  0.00  0.00    +0.000 A 
ATOM     31  O3  UNL     1      22.051  32.749  34.224  0.00  0.00    +0.000 OA
ATOM     32  H4  UNL     1      19.018  37.033  31.762  0.00  0.00    +0.000 HD
ATOM     33  H21 UNL     1      19.757  34.848  37.352  0.00  0.00    +0.000 HD
ENDROOT
BRANCH  18  34
ATOM     34  C15 UNL     1      20.015  35.718  39.679  0.00  0.00    +0.000 C 
BRANCH  34  35
ATOM     35  C16 UNL     1      20.788  34.489  40.057  0.00  0.00    +0.000 A 
ATOM     36  C17 UNL     1      21.901  34.443  40.892  0.00  0.00    +0.000 A 
ATOM     37  N3  UNL     1      22.316  33.167  41.059  0.00  0.00    +0.000 N 
ATOM     38  C18 UNL     1      21.471  32.406  40.340  0.00  0.00    +0.000 A 
ATOM     39  C19 UNL     1      21.490  31.019  40.211  0.00  0.00    +0.000 A 
ATOM     40  C20 UNL     1      20.495  30.418  39.417  0.00  0.00    +0.000 A 
ATOM     41  C21 UNL     1      19.518  31.210  38.775  0.00  0.00    +0.000 A 
ATOM     42  C22 UNL     1      19.524  32.610  38.921  0.00  0.00    +0.000 A 
ATOM     43  C23 UNL     1      20.523  33.176  39.715  0.00  0.00    +0.000 A 
ATOM     44  H16 UNL     1      23.124  32.844  41.635  0.00  0.00    +0.000 HD
ENDBRANCH  34  35
ENDBRANCH  18  34
TORSDOF 2
ENDMDL
MODEL 3
REMARK VINA RESULT:    -7.503      2.944      7.922
REMARK INTER + INTRA:          -9.748
REMARK INTER:                  -8.115
REMARK INTRA:                  -1.633
REMARK UNBOUND:                -1.368
REMARK  Name = CNP0357158_1.pdb
REMARK  3 active torsions:
REMARK  status: ('A' for Active; 'I' for Inactive)
REMARK    1  A    between atoms: C1_1  and  C2_2
REMARK    2  A    between atoms: C14_18  and  C15_19
REMARK    3  A    between atoms: C15_19  and  C16_20
REMARK                            x       y       z     vdW  Elec       q    Type
REMARK                         _______ _______ _______ _____ _____    ______ ____
ROOT
ATOM      1  C1  UNL     1      19.746  35.275  36.274  0.00  0.00    +0.000 C 
ATOM      2  C2  UNL     1      20.242  36.536  37.013  0.00  0.00    +0.000 C 
ATOM      3  N1  UNL     1      19.785  36.506  38.419  0.00  0.00    +0.000 N 
ATOM      4  C3  UNL     1      20.082  37.696  39.161  0.00  0.00    +0.000 C 
ATOM      5  O1  UNL     1      19.751  37.840  40.366  0.00  0.00    +0.000 OA
ATOM      6  C4  UNL     1      20.826  38.737  38.374  0.00  0.00    +0.000 C 
ATOM      7  C5  UNL     1      22.141  38.027  37.951  0.00  0.00    +0.000 C 
ATOM      8  C6  UNL     1      21.814  36.768  37.017  0.00  0.00    +0.000 C 
ATOM      9  C7  UNL     1      22.587  35.565  37.515  0.00  0.00    +0.000 A 
ATOM     10  C8  UNL     1      22.487  34.901  38.745  0.00  0.00    +0.000 A 
ATOM     11  C9  UNL     1      23.386  33.862  39.029  0.00  0.00    +0.000 A 
ATOM     12  C10 UNL     1      24.383  33.513  38.101  0.00  0.00    +0.000 A 
ATOM     13  C11 UNL     1      24.493  34.210  36.888  0.00  0.00    +0.000 A 
ATOM     14  C12 UNL     1      23.581  35.235  36.627  0.00  0.00    +0.000 A 
ATOM     15  N2  UNL     1      23.557  36.057  35.479  0.00  0.00    +0.000 N 
ATOM     16  C13 UNL     1      24.640  36.839  35.041  0.00  0.00    +0.000 C 
ATOM     17  O2  UNL     1      25.827  36.419  34.997  0.00  0.00    +0.000 OA
ATOM     18  C14 UNL     1      24.218  38.223  34.730  0.00  0.00    +0.000 C 
ATOM     19  N4  UNL     1      22.812  38.290  35.186  0.00  0.00    +0.000 NA
ATOM     20  C24 UNL     1      22.390  36.918  35.543  0.00  0.00    +0.000 C 
ATOM     21  N5  UNL     1      20.033  38.969  37.142  0.00  0.00    +0.000 N 
ATOM     22  C25 UNL     1      19.693  37.836  36.444  0.00  0.00    +0.000 A 
ATOM     23  N6  UNL     1      19.007  37.915  35.275  0.00  0.00    +0.000 NA
ATOM     24  C26 UNL     1      18.626  39.122  34.782  0.00  0.00    +0.000 A 
ATOM     25  C27 UNL     1      17.913  39.188  33.580  0.00  0.00    +0.000 A 
ATOM     26  C28 UNL     1      17.528  40.427  33.061  0.00  0.00    +0.000 A 
ATOM     27  C29 UNL     1      17.857  41.606  33.737  0.00  0.00    +0.000 A 
ATOM     28  C30 UNL     1      18.572  41.551  34.938  0.00  0.00    +0.000 A 
ATOM     29  C31 UNL     1      18.961  40.309  35.472  0.00  0.00    +0.000 A 
ATOM     30  C32 UNL     1      19.687  40.204  36.674  0.00  0.00    +0.000 A 
ATOM     31  O3  UNL     1      20.022  41.240  37.310  0.00  0.00    +0.000 OA
ATOM     32  H4  UNL     1      19.275  35.698  38.844  0.00  0.00    +0.000 HD
ATOM     33  H21 UNL     1      22.175  38.668  34.447  0.00  0.00    +0.000 HD
ENDROOT
BRANCH  18  34
ATOM     34  C15 UNL     1      24.350  38.538  33.225  0.00  0.00    +0.000 C 
BRANCH  34  35
ATOM     35  C16 UNL     1      24.074  39.986  32.940  0.00  0.00    +0.000 A 
ATOM     36  C17 UNL     1      24.982  41.034  33.064  0.00  0.00    +0.000 A 
ATOM     37  N3  UNL     1      24.416  42.199  32.675  0.00  0.00    +0.000 N 
ATOM     38  C18 UNL     1      23.161  41.895  32.301  0.00  0.00    +0.000 A 
ATOM     39  C19 UNL     1      22.192  42.769  31.813  0.00  0.00    +0.000 A 
ATOM     40  C20 UNL     1      20.939  42.232  31.461  0.00  0.00    +0.000 A 
ATOM     41  C21 UNL     1      20.685  40.851  31.609  0.00  0.00    +0.000 A 
ATOM     42  C22 UNL     1      21.682  39.992  32.107  0.00  0.00    +0.000 A 
ATOM     43  C23 UNL     1      22.914  40.552  32.445  0.00  0.00    +0.000 A 
ATOM     44  H16 UNL     1      24.869  43.140  32.664  0.00  0.00    +0.000 HD
ENDBRANCH  34  35
ENDBRANCH  18  34
TORSDOF 2
ENDMDL
MODEL 4
REMARK VINA RESULT:    -7.470      2.211      5.476
REMARK INTER + INTRA:          -9.711
REMARK INTER:                  -8.043
REMARK INTRA:                  -1.668
REMARK UNBOUND:                -1.368
REMARK  Name = CNP0357158_1.pdb
REMARK  3 active torsions:
REMARK  status: ('A' for Active; 'I' for Inactive)
REMARK    1  A    between atoms: C1_1  and  C2_2
REMARK    2  A    between atoms: C14_18  and  C15_19
REMARK    3  A    between atoms: C15_19  and  C16_20
REMARK                            x       y       z     vdW  Elec       q    Type
REMARK                         _______ _______ _______ _____ _____    ______ ____
ROOT
ATOM      1  C1  UNL     1      17.586  37.117  34.756  0.00  0.00    +0.000 C 
ATOM      2  C2  UNL     1      19.038  36.625  34.579  0.00  0.00    +0.000 C 
ATOM      3  N1  UNL     1      19.692  37.376  33.486  0.00  0.00    +0.000 N 
ATOM      4  C3  UNL     1      21.005  36.907  33.152  0.00  0.00    +0.000 C 
ATOM      5  O1  UNL     1      21.694  37.426  32.236  0.00  0.00    +0.000 OA
ATOM      6  C4  UNL     1      21.477  35.758  33.996  0.00  0.00    +0.000 C 
ATOM      7  C5  UNL     1      21.460  36.317  35.445  0.00  0.00    +0.000 C 
ATOM      8  C6  UNL     1      19.969  36.726  35.863  0.00  0.00    +0.000 C 
ATOM      9  C7  UNL     1      19.986  38.111  36.474  0.00  0.00    +0.000 A 
ATOM     10  C8  UNL     1      20.341  39.330  35.882  0.00  0.00    +0.000 A 
ATOM     11  C9  UNL     1      20.378  40.485  36.680  0.00  0.00    +0.000 A 
ATOM     12  C10 UNL     1      20.085  40.409  38.052  0.00  0.00    +0.000 A 
ATOM     13  C11 UNL     1      19.764  39.175  38.637  0.00  0.00    +0.000 A 
ATOM     14  C12 UNL     1      19.727  38.043  37.820  0.00  0.00    +0.000 A 
ATOM     15  N2  UNL     1      19.452  36.721  38.239  0.00  0.00    +0.000 N 
ATOM     16  C13 UNL     1      20.170  36.041  39.238  0.00  0.00    +0.000 C 
ATOM     17  O2  UNL     1      20.499  36.564  40.335  0.00  0.00    +0.000 OA
ATOM     18  C14 UNL     1      20.555  34.681  38.796  0.00  0.00    +0.000 C 
ATOM     19  N4  UNL     1      20.176  34.637  37.368  0.00  0.00    +0.000 NA
ATOM     20  C24 UNL     1      19.401  35.862  37.071  0.00  0.00    +0.000 C 
ATOM     21  N5  UNL     1      20.419  34.721  33.911  0.00  0.00    +0.000 N 
ATOM     22  C25 UNL     1      19.146  35.162  34.177  0.00  0.00    +0.000 A 
ATOM     23  N6  UNL     1      18.095  34.302  34.177  0.00  0.00    +0.000 NA
ATOM     24  C26 UNL     1      18.281  32.988  33.893  0.00  0.00    +0.000 A 
ATOM     25  C27 UNL     1      17.188  32.115  33.890  0.00  0.00    +0.000 A 
ATOM     26  C28 UNL     1      17.375  30.758  33.611  0.00  0.00    +0.000 A 
ATOM     27  C29 UNL     1      18.656  30.266  33.339  0.00  0.00    +0.000 A 
ATOM     28  C30 UNL     1      19.756  31.129  33.343  0.00  0.00    +0.000 A 
ATOM     29  C31 UNL     1      19.579  32.498  33.618  0.00  0.00    +0.000 A 
ATOM     30  C32 UNL     1      20.656  33.404  33.640  0.00  0.00    +0.000 A 
ATOM     31  O3  UNL     1      21.831  33.004  33.418  0.00  0.00    +0.000 OA
ATOM     32  H4  UNL     1      19.241  38.173  32.981  0.00  0.00    +0.000 HD
ATOM     33  H21 UNL     1      19.597  33.796  37.138  0.00  0.00    +0.000 HD
ENDROOT
BRANCH  18  34
ATOM     34  C15 UNL     1      19.838  33.587  39.616  0.00  0.00    +0.000 C 
BRANCH  34  35
ATOM     35  C16 UNL     1      20.156  32.215  39.099  0.00  0.00    +0.000 A 
ATOM     36  C17 UNL     1      21.348  31.522  39.290  0.00  0.00    +0.000 A 
ATOM     37  N3  UNL     1      21.275  30.291  38.734  0.00  0.00    +0.000 N 
ATOM     38  C18 UNL     1      20.045  30.200  38.197  0.00  0.00    +0.000 A 
ATOM     39  C19 UNL     1      19.500  29.110  37.522  0.00  0.00    +0.000 A 
ATOM     40  C20 UNL     1      18.177  29.221  37.053  0.00  0.00    +0.000 A 
ATOM     41  C21 UNL     1      17.441  30.408  37.263  0.00  0.00    +0.000 A 
ATOM     42  C22 UNL     1      18.018  31.494  37.947  0.00  0.00    +0.000 A 
ATOM     43  C23 UNL     1      19.331  31.354  38.401  0.00  0.00    +0.000 A 
ATOM     44  H16 UNL     1      22.022  29.563  38.730  0.00  0.00    +0.000 HD
ENDBRANCH  34  35
ENDBRANCH  18  34
TORSDOF 2
ENDMDL
MODEL 5
REMARK VINA RESULT:    -7.313      7.503     10.939
REMARK INTER + INTRA:          -9.535
REMARK INTER:                  -7.990
REMARK INTRA:                  -1.546
REMARK UNBOUND:                -1.368
REMARK  Name = CNP0357158_1.pdb
REMARK  3 active torsions:
REMARK  status: ('A' for Active; 'I' for Inactive)
REMARK    1  A    between atoms: C1_1  and  C2_2
REMARK    2  A    between atoms: C14_18  and  C15_19
REMARK    3  A    between atoms: C15_19  and  C16_20
REMARK                            x       y       z     vdW  Elec       q    Type
REMARK                         _______ _______ _______ _____ _____    ______ ____
ROOT
ATOM      1  C1  UNL     1      27.460  38.411  33.011  0.00  0.00    +0.000 C 
ATOM      2  C2  UNL     1      28.584  37.467  33.487  0.00  0.00    +0.000 C 
ATOM      3  N1  UNL     1      29.005  36.588  32.375  0.00  0.00    +0.000 N 
ATOM      4  C3  UNL     1      29.957  35.583  32.746  0.00  0.00    +0.000 C 
ATOM      5  O1  UNL     1      30.408  34.744  31.923  0.00  0.00    +0.000 OA
ATOM      6  C4  UNL     1      30.364  35.630  34.191  0.00  0.00    +0.000 C 
ATOM      7  C5  UNL     1      30.983  37.044  34.366  0.00  0.00    +0.000 C 
ATOM      8  C6  UNL     1      29.884  38.170  34.071  0.00  0.00    +0.000 C 
ATOM      9  C7  UNL     1      30.469  39.203  33.133  0.00  0.00    +0.000 A 
ATOM     10  C8  UNL     1      30.913  39.044  31.813  0.00  0.00    +0.000 A 
ATOM     11  C9  UNL     1      31.518  40.132  31.166  0.00  0.00    +0.000 A 
ATOM     12  C10 UNL     1      31.695  41.352  31.842  0.00  0.00    +0.000 A 
ATOM     13  C11 UNL     1      31.276  41.485  33.175  0.00  0.00    +0.000 A 
ATOM     14  C12 UNL     1      30.670  40.390  33.793  0.00  0.00    +0.000 A 
ATOM     15  N2  UNL     1      30.214  40.334  35.129  0.00  0.00    +0.000 N 
ATOM     16  C13 UNL     1      31.020  40.588  36.253  0.00  0.00    +0.000 C 
ATOM     17  O2  UNL     1      31.824  41.554  36.327  0.00  0.00    +0.000 OA
ATOM     18  C14 UNL     1      30.862  39.536  37.281  0.00  0.00    +0.000 C 
ATOM     19  N4  UNL     1      30.027  38.505  36.628  0.00  0.00    +0.000 NA
ATOM     20  C24 UNL     1      29.549  39.062  35.344  0.00  0.00    +0.000 C 
ATOM     21  N5  UNL     1      29.106  35.599  34.976  0.00  0.00    +0.000 N 
ATOM     22  C25 UNL     1      28.160  36.522  34.602  0.00  0.00    +0.000 A 
ATOM     23  N6  UNL     1      26.984  36.627  35.271  0.00  0.00    +0.000 NA
ATOM     24  C26 UNL     1      26.711  35.805  36.316  0.00  0.00    +0.000 A 
ATOM     25  C27 UNL     1      25.491  35.920  36.992  0.00  0.00    +0.000 A 
ATOM     26  C28 UNL     1      25.210  35.084  38.077  0.00  0.00    +0.000 A 
ATOM     27  C29 UNL     1      26.146  34.134  38.495  0.00  0.00    +0.000 A 
ATOM     28  C30 UNL     1      27.370  34.013  37.828  0.00  0.00    +0.000 A 
ATOM     29  C31 UNL     1      27.662  34.845  36.732  0.00  0.00    +0.000 A 
ATOM     30  C32 UNL     1      28.882  34.765  36.034  0.00  0.00    +0.000 A 
ATOM     31  O3  UNL     1      29.765  33.936  36.385  0.00  0.00    +0.000 OA
ATOM     32  H4  UNL     1      28.638  36.674  31.400  0.00  0.00    +0.000 HD
ATOM     33  H21 UNL     1      29.205  38.231  37.215  0.00  0.00    +0.000 HD
ENDROOT
BRANCH  18  34
ATOM     34  C15 UNL     1      30.201  40.082  38.565  0.00  0.00    +0.000 C 
BRANCH  34  35
ATOM     35  C16 UNL     1      30.399  39.151  39.725  0.00  0.00    +0.000 A 
ATOM     36  C17 UNL     1      31.470  39.163  40.614  0.00  0.00    +0.000 A 
ATOM     37  N3  UNL     1      31.303  38.221  41.570  0.00  0.00    +0.000 N 
ATOM     38  C18 UNL     1      30.133  37.618  41.295  0.00  0.00    +0.000 A 
ATOM     39  C19 UNL     1      29.529  36.586  42.010  0.00  0.00    +0.000 A 
ATOM     40  C20 UNL     1      28.286  36.109  41.555  0.00  0.00    +0.000 A 
ATOM     41  C21 UNL     1      27.683  36.667  40.405  0.00  0.00    +0.000 A 
ATOM     42  C22 UNL     1      28.317  37.707  39.701  0.00  0.00    +0.000 A 
ATOM     43  C23 UNL     1      29.549  38.159  40.177  0.00  0.00    +0.000 A 
ATOM     44  H16 UNL     1      31.951  38.013  42.361  0.00  0.00    +0.000 HD
ENDBRANCH  34  35
ENDBRANCH  18  34
TORSDOF 2
ENDMDL
MODEL 6
REMARK VINA RESULT:    -7.201      2.984      7.013
REMARK INTER + INTRA:          -9.410
REMARK INTER:                  -8.571
REMARK INTRA:                  -0.839
REMARK UNBOUND:                -1.368
REMARK  Name = CNP0357158_1.pdb
REMARK  3 active torsions:
REMARK  status: ('A' for Active; 'I' for Inactive)
REMARK    1  A    between atoms: C1_1  and  C2_2
REMARK    2  A    between atoms: C14_18  and  C15_19
REMARK    3  A    between atoms: C15_19  and  C16_20
REMARK                            x       y       z     vdW  Elec       q    Type
REMARK                         _______ _______ _______ _____ _____    ______ ____
ROOT
ATOM      1  C1  UNL     1      18.174  36.967  29.791  0.00  0.00    +0.000 C 
ATOM      2  C2  UNL     1      17.442  37.620  30.981  0.00  0.00    +0.000 C 
ATOM      3  N1  UNL     1      16.135  38.149  30.537  0.00  0.00    +0.000 N 
ATOM      4  C3  UNL     1      15.428  38.891  31.539  0.00  0.00    +0.000 C 
ATOM      5  O1  UNL     1      14.307  39.420  31.321  0.00  0.00    +0.000 OA
ATOM      6  C4  UNL     1      16.141  38.969  32.859  0.00  0.00    +0.000 C 
ATOM      7  C5  UNL     1      16.292  37.488  33.298  0.00  0.00    +0.000 C 
ATOM      8  C6  UNL     1      17.187  36.685  32.241  0.00  0.00    +0.000 C 
ATOM      9  C7  UNL     1      16.493  35.389  31.883  0.00  0.00    +0.000 A 
ATOM     10  C8  UNL     1      15.259  35.196  31.248  0.00  0.00    +0.000 A 
ATOM     11  C9  UNL     1      14.764  33.890  31.109  0.00  0.00    +0.000 A 
ATOM     12  C10 UNL     1      15.487  32.800  31.623  0.00  0.00    +0.000 A 
ATOM     13  C11 UNL     1      16.704  33.011  32.287  0.00  0.00    +0.000 A 
ATOM     14  C12 UNL     1      17.178  34.319  32.404  0.00  0.00    +0.000 A 
ATOM     15  N2  UNL     1      18.363  34.721  33.060  0.00  0.00    +0.000 N 
ATOM     16  C13 UNL     1      18.659  34.439  34.405  0.00  0.00    +0.000 C 
ATOM     17  O2  UNL     1      18.476  33.311  34.934  0.00  0.00    +0.000 OA
ATOM     18  C14 UNL     1      19.122  35.648  35.123  0.00  0.00    +0.000 C 
ATOM     19  N4  UNL     1      18.915  36.750  34.159  0.00  0.00    +0.000 NA
ATOM     20  C24 UNL     1      18.549  36.146  32.859  0.00  0.00    +0.000 C 
ATOM     21  N5  UNL     1      17.501  39.483  32.564  0.00  0.00    +0.000 N 
ATOM     22  C25 UNL     1      18.175  38.816  31.570  0.00  0.00    +0.000 A 
ATOM     23  N6  UNL     1      19.445  39.160  31.237  0.00  0.00    +0.000 NA
ATOM     24  C26 UNL     1      20.069  40.186  31.870  0.00  0.00    +0.000 A 
ATOM     25  C27 UNL     1      21.376  40.533  31.511  0.00  0.00    +0.000 A 
ATOM     26  C28 UNL     1      22.028  41.581  32.167  0.00  0.00    +0.000 A 
ATOM     27  C29 UNL     1      21.381  42.284  33.188  0.00  0.00    +0.000 A 
ATOM     28  C30 UNL     1      20.075  41.943  33.556  0.00  0.00    +0.000 A 
ATOM     29  C31 UNL     1      19.407  40.893  32.900  0.00  0.00    +0.000 A 
ATOM     30  C32 UNL     1      18.096  40.510  33.240  0.00  0.00    +0.000 A 
ATOM     31  O3  UNL     1      17.478  41.102  34.166  0.00  0.00    +0.000 OA
ATOM     32  H4  UNL     1      15.752  38.011  29.574  0.00  0.00    +0.000 HD
ATOM     33  H21 UNL     1      19.773  37.338  34.040  0.00  0.00    +0.000 HD
ENDROOT
BRANCH  18  34
ATOM     34  C15 UNL     1      20.600  35.529  35.552  0.00  0.00    +0.000 C 
BRANCH  34  35
ATOM     35  C16 UNL     1      21.082  36.786  36.216  0.00  0.00    +0.000 A 
ATOM     36  C17 UNL     1      22.101  37.617  35.759  0.00  0.00    +0.000 A 
ATOM     37  N3  UNL     1      22.239  38.689  36.571  0.00  0.00    +0.000 N 
ATOM     38  C18 UNL     1      21.312  38.544  37.535  0.00  0.00    +0.000 A 
ATOM     39  C19 UNL     1      21.062  39.408  38.599  0.00  0.00    +0.000 A 
ATOM     40  C20 UNL     1      20.026  39.072  39.490  0.00  0.00    +0.000 A 
ATOM     41  C21 UNL     1      19.275  37.891  39.302  0.00  0.00    +0.000 A 
ATOM     42  C22 UNL     1      19.552  37.035  38.220  0.00  0.00    +0.000 A 
ATOM     43  C23 UNL     1      20.584  37.396  37.352  0.00  0.00    +0.000 A 
ATOM     44  H16 UNL     1      22.923  39.470  36.463  0.00  0.00    +0.000 HD
ENDBRANCH  34  35
ENDBRANCH  18  34
TORSDOF 2
ENDMDL
MODEL 7
REMARK VINA RESULT:    -7.158      3.797      7.845
REMARK INTER + INTRA:          -9.362
REMARK INTER:                  -8.664
REMARK INTRA:                  -0.698
REMARK UNBOUND:                -1.368
REMARK  Name = CNP0357158_1.pdb
REMARK  3 active torsions:
REMARK  status: ('A' for Active; 'I' for Inactive)
REMARK    1  A    between atoms: C1_1  and  C2_2
REMARK    2  A    between atoms: C14_18  and  C15_19
REMARK    3  A    between atoms: C15_19  and  C16_20
REMARK                            x       y       z     vdW  Elec       q    Type
REMARK                         _______ _______ _______ _____ _____    ______ ____
ROOT
ATOM      1  C1  UNL     1      17.690  39.278  29.147  0.00  0.00    +0.000 C 
ATOM      2  C2  UNL     1      16.803  39.828  30.283  0.00  0.00    +0.000 C 
ATOM      3  N1  UNL     1      15.519  40.307  29.730  0.00  0.00    +0.000 N 
ATOM      4  C3  UNL     1      14.671  40.957  30.687  0.00  0.00    +0.000 C 
ATOM      5  O1  UNL     1      13.549  41.435  30.378  0.00  0.00    +0.000 OA
ATOM      6  C4  UNL     1      15.240  41.003  32.076  0.00  0.00    +0.000 C 
ATOM      7  C5  UNL     1      15.433  39.510  32.459  0.00  0.00    +0.000 C 
ATOM      8  C6  UNL     1      16.477  38.814  31.464  0.00  0.00    +0.000 C 
ATOM      9  C7  UNL     1      15.900  37.503  30.975  0.00  0.00    +0.000 A 
ATOM     10  C8  UNL     1      14.751  37.279  30.205  0.00  0.00    +0.000 A 
ATOM     11  C9  UNL     1      14.351  35.957  29.955  0.00  0.00    +0.000 A 
ATOM     12  C10 UNL     1      15.081  34.881  30.489  0.00  0.00    +0.000 A 
ATOM     13  C11 UNL     1      16.210  35.122  31.287  0.00  0.00    +0.000 A 
ATOM     14  C12 UNL     1      16.591  36.446  31.514  0.00  0.00    +0.000 A 
ATOM     15  N2  UNL     1      17.677  36.876  32.309  0.00  0.00    +0.000 N 
ATOM     16  C13 UNL     1      17.851  36.539  33.663  0.00  0.00    +0.000 C 
ATOM     17  O2  UNL     1      17.682  35.377  34.116  0.00  0.00    +0.000 OA
ATOM     18  C14 UNL     1      18.166  37.732  34.481  0.00  0.00    +0.000 C 
ATOM     19  N4  UNL     1      17.993  38.871  33.553  0.00  0.00    +0.000 NA
ATOM     20  C24 UNL     1      17.799  38.318  32.195  0.00  0.00    +0.000 C 
ATOM     21  N5  UNL     1      16.590  41.604  31.950  0.00  0.00    +0.000 N 
ATOM     22  C25 UNL     1      17.400  41.028  31.002  0.00  0.00    +0.000 A 
ATOM     23  N6  UNL     1      18.675  41.457  30.820  0.00  0.00    +0.000 NA
ATOM     24  C26 UNL     1      19.170  42.481  31.562  0.00  0.00    +0.000 A 
ATOM     25  C27 UNL     1      20.484  42.916  31.358  0.00  0.00    +0.000 A 
ATOM     26  C28 UNL     1      21.003  43.962  32.128  0.00  0.00    +0.000 A 
ATOM     27  C29 UNL     1      20.214  44.573  33.107  0.00  0.00    +0.000 A 
ATOM     28  C30 UNL     1      18.900  44.143  33.321  0.00  0.00    +0.000 A 
ATOM     29  C31 UNL     1      18.366  43.095  32.549  0.00  0.00    +0.000 A 
ATOM     30  C32 UNL     1      17.052  42.624  32.732  0.00  0.00    +0.000 A 
ATOM     31  O3  UNL     1      16.309  43.132  33.615  0.00  0.00    +0.000 OA
ATOM     32  H4  UNL     1      15.245  40.200  28.727  0.00  0.00    +0.000 HD
ATOM     33  H21 UNL     1      18.823  39.509  33.553  0.00  0.00    +0.000 HD
ENDROOT
BRANCH  18  34
ATOM     34  C15 UNL     1      19.597  37.670  35.057  0.00  0.00    +0.000 C 
BRANCH  34  35
ATOM     35  C16 UNL     1      19.583  37.560  36.554  0.00  0.00    +0.000 A 
ATOM     36  C17 UNL     1      19.582  36.378  37.289  0.00  0.00    +0.000 A 
ATOM     37  N3  UNL     1      19.622  36.645  38.614  0.00  0.00    +0.000 N 
ATOM     38  C18 UNL     1      19.654  37.985  38.721  0.00  0.00    +0.000 A 
ATOM     39  C19 UNL     1      19.711  38.735  39.894  0.00  0.00    +0.000 A 
ATOM     40  C20 UNL     1      19.755  40.137  39.777  0.00  0.00    +0.000 A 
ATOM     41  C21 UNL     1      19.736  40.750  38.505  0.00  0.00    +0.000 A 
ATOM     42  C22 UNL     1      19.675  39.967  37.337  0.00  0.00    +0.000 A 
ATOM     43  C23 UNL     1      19.634  38.580  37.485  0.00  0.00    +0.000 A 
ATOM     44  H16 UNL     1      19.632  35.948  39.391  0.00  0.00    +0.000 HD
ENDBRANCH  34  35
ENDBRANCH  18  34
TORSDOF 2
ENDMDL
MODEL 8
REMARK VINA RESULT:    -7.150     12.438     16.116
REMARK INTER + INTRA:          -9.353
REMARK INTER:                  -7.747
REMARK INTRA:                  -1.607
REMARK UNBOUND:                -1.368
REMARK  Name = CNP0357158_1.pdb
REMARK  3 active torsions:
REMARK  status: ('A' for Active; 'I' for Inactive)
REMARK    1  A    between atoms: C1_1  and  C2_2
REMARK    2  A    between atoms: C14_18  and  C15_19
REMARK    3  A    between atoms: C15_19  and  C16_20
REMARK                            x       y       z     vdW  Elec       q    Type
REMARK                         _______ _______ _______ _____ _____    ______ ____
ROOT
ATOM      1  C1  UNL     1      26.616  48.519  30.748  0.00  0.00    +0.000 C 
ATOM      2  C2  UNL     1      25.961  48.322  32.131  0.00  0.00    +0.000 C 
ATOM      3  N1  UNL     1      26.643  47.230  32.858  0.00  0.00    +0.000 N 
ATOM      4  C3  UNL     1      26.028  46.878  34.105  0.00  0.00    +0.000 C 
ATOM      5  O1  UNL     1      26.474  45.960  34.841  0.00  0.00    +0.000 OA
ATOM      6  C4  UNL     1      24.822  47.705  34.446  0.00  0.00    +0.000 C 
ATOM      7  C5  UNL     1      25.362  49.160  34.508  0.00  0.00    +0.000 C 
ATOM      8  C6  UNL     1      25.938  49.598  33.079  0.00  0.00    +0.000 C 
ATOM      9  C7  UNL     1      27.304  50.223  33.262  0.00  0.00    +0.000 A 
ATOM     10  C8  UNL     1      28.480  49.640  33.753  0.00  0.00    +0.000 A 
ATOM     11  C9  UNL     1      29.613  50.449  33.931  0.00  0.00    +0.000 A 
ATOM     12  C10 UNL     1      29.556  51.824  33.643  0.00  0.00    +0.000 A 
ATOM     13  C11 UNL     1      28.361  52.399  33.186  0.00  0.00    +0.000 A 
ATOM     14  C12 UNL     1      27.250  51.571  33.010  0.00  0.00    +0.000 A 
ATOM     15  N2  UNL     1      25.965  51.978  32.586  0.00  0.00    +0.000 N 
ATOM     16  C13 UNL     1      25.194  52.963  33.228  0.00  0.00    +0.000 C 
ATOM     17  O2  UNL     1      25.662  54.062  33.626  0.00  0.00    +0.000 OA
ATOM     18  C14 UNL     1      23.805  52.503  33.448  0.00  0.00    +0.000 C 
ATOM     19  N4  UNL     1      23.822  51.078  33.054  0.00  0.00    +0.000 NA
ATOM     20  C24 UNL     1      25.131  50.802  32.424  0.00  0.00    +0.000 C 
ATOM     21  N5  UNL     1      23.917  47.620  33.274  0.00  0.00    +0.000 N 
ATOM     22  C25 UNL     1      24.500  47.903  32.064  0.00  0.00    +0.000 A 
ATOM     23  N6  UNL     1      23.769  47.905  30.920  0.00  0.00    +0.000 NA
ATOM     24  C26 UNL     1      22.445  47.605  30.949  0.00  0.00    +0.000 A 
ATOM     25  C27 UNL     1      21.705  47.604  29.761  0.00  0.00    +0.000 A 
ATOM     26  C28 UNL     1      20.339  47.309  29.787  0.00  0.00    +0.000 A 
ATOM     27  C29 UNL     1      19.704  47.019  30.998  0.00  0.00    +0.000 A 
ATOM     28  C30 UNL     1      20.434  47.021  32.191  0.00  0.00    +0.000 A 
ATOM     29  C31 UNL     1      21.810  47.312  32.178  0.00  0.00    +0.000 A 
ATOM     30  C32 UNL     1      22.584  47.332  33.354  0.00  0.00    +0.000 A 
ATOM     31  O3  UNL     1      22.052  47.095  34.472  0.00  0.00    +0.000 OA
ATOM     32  H4  UNL     1      27.493  46.739  32.499  0.00  0.00    +0.000 HD
ATOM     33  H21 UNL     1      23.056  50.845  32.379  0.00  0.00    +0.000 HD
ENDROOT
BRANCH  18  34
ATOM     34  C15 UNL     1      22.792  53.318  32.616  0.00  0.00    +0.000 C 
BRANCH  34  35
ATOM     35  C16 UNL     1      21.378  53.019  33.022  0.00  0.00    +0.000 A 
ATOM     36  C17 UNL     1      20.700  53.573  34.103  0.00  0.00    +0.000 A 
ATOM     37  N3  UNL     1      19.426  53.122  34.145  0.00  0.00    +0.000 N 
ATOM     38  C18 UNL     1      19.293  52.290  33.097  0.00  0.00    +0.000 A 
ATOM     39  C19 UNL     1      18.151  51.588  32.717  0.00  0.00    +0.000 A 
ATOM     40  C20 UNL     1      18.226  50.781  31.567  0.00  0.00    +0.000 A 
ATOM     41  C21 UNL     1      19.429  50.691  30.833  0.00  0.00    +0.000 A 
ATOM     42  C22 UNL     1      20.568  51.409  31.241  0.00  0.00    +0.000 A 
ATOM     43  C23 UNL     1      20.463  52.202  32.384  0.00  0.00    +0.000 A 
ATOM     44  H16 UNL     1      18.697  53.375  34.848  0.00  0.00    +0.000 HD
ENDBRANCH  34  35
ENDBRANCH  18  34
TORSDOF 2
ENDMDL
MODEL 9
REMARK VINA RESULT:    -7.125      3.530      5.312
REMARK INTER + INTRA:          -9.326
REMARK INTER:                  -7.944
REMARK INTRA:                  -1.382
REMARK UNBOUND:                -1.368
REMARK  Name = CNP0357158_1.pdb
REMARK  3 active torsions:
REMARK  status: ('A' for Active; 'I' for Inactive)
REMARK    1  A    between atoms: C1_1  and  C2_2
REMARK    2  A    between atoms: C14_18  and  C15_19
REMARK    3  A    between atoms: C15_19  and  C16_20
REMARK                            x       y       z     vdW  Elec       q    Type
REMARK                         _______ _______ _______ _____ _____    ______ ____
ROOT
ATOM      1  C1  UNL     1      20.389  42.146  33.887  0.00  0.00    +0.000 C 
ATOM      2  C2  UNL     1      19.885  40.706  33.656  0.00  0.00    +0.000 C 
ATOM      3  N1  UNL     1      18.587  40.735  32.949  0.00  0.00    +0.000 N 
ATOM      4  C3  UNL     1      17.969  39.451  32.799  0.00  0.00    +0.000 C 
ATOM      5  O1  UNL     1      16.854  39.301  32.233  0.00  0.00    +0.000 OA
ATOM      6  C4  UNL     1      18.771  38.315  33.367  0.00  0.00    +0.000 C 
ATOM      7  C5  UNL     1      20.107  38.361  32.577  0.00  0.00    +0.000 C 
ATOM      8  C6  UNL     1      20.861  39.749  32.843  0.00  0.00    +0.000 C 
ATOM      9  C7  UNL     1      21.300  40.339  31.520  0.00  0.00    +0.000 A 
ATOM     10  C8  UNL     1      20.514  40.772  30.444  0.00  0.00    +0.000 A 
ATOM     11  C9  UNL     1      21.150  41.194  29.267  0.00  0.00    +0.000 A 
ATOM     12  C10 UNL     1      22.551  41.158  29.166  0.00  0.00    +0.000 A 
ATOM     13  C11 UNL     1      23.324  40.690  30.239  0.00  0.00    +0.000 A 
ATOM     14  C12 UNL     1      22.666  40.284  31.402  0.00  0.00    +0.000 A 
ATOM     15  N2  UNL     1      23.276  39.761  32.565  0.00  0.00    +0.000 N 
ATOM     16  C13 UNL     1      24.114  38.633  32.582  0.00  0.00    +0.000 C 
ATOM     17  O2  UNL     1      25.025  38.432  31.737  0.00  0.00    +0.000 OA
ATOM     18  C14 UNL     1      23.728  37.689  33.655  0.00  0.00    +0.000 C 
ATOM     19  N4  UNL     1      22.463  38.236  34.190  0.00  0.00    +0.000 NA
ATOM     20  C24 UNL     1      22.257  39.569  33.581  0.00  0.00    +0.000 C 
ATOM     21  N5  UNL     1      19.075  38.686  34.770  0.00  0.00    +0.000 N 
ATOM     22  C25 UNL     1      19.622  39.934  34.940  0.00  0.00    +0.000 A 
ATOM     23  N6  UNL     1      19.987  40.375  36.171  0.00  0.00    +0.000 NA
ATOM     24  C26 UNL     1      19.801  39.592  37.266  0.00  0.00    +0.000 A 
ATOM     25  C27 UNL     1      20.177  40.062  38.529  0.00  0.00    +0.000 A 
ATOM     26  C28 UNL     1      19.999  39.256  39.657  0.00  0.00    +0.000 A 
ATOM     27  C29 UNL     1      19.450  37.977  39.529  0.00  0.00    +0.000 A 
ATOM     28  C30 UNL     1      19.075  37.496  38.270  0.00  0.00    +0.000 A 
ATOM     29  C31 UNL     1      19.245  38.300  37.128  0.00  0.00    +0.000 A 
ATOM     30  C32 UNL     1      18.888  37.857  35.840  0.00  0.00    +0.000 A 
ATOM     31  O3  UNL     1      18.406  36.704  35.672  0.00  0.00    +0.000 OA
ATOM     32  H4  UNL     1      18.141  41.613  32.596  0.00  0.00    +0.000 HD
ATOM     33  H21 UNL     1      22.482  38.330  35.232  0.00  0.00    +0.000 HD
ENDROOT
BRANCH  18  34
ATOM     34  C15 UNL     1      24.816  37.584  34.745  0.00  0.00    +0.000 C 
BRANCH  34  35
ATOM     35  C16 UNL     1      24.729  36.281  35.485  0.00  0.00    +0.000 A 
ATOM     36  C17 UNL     1      25.471  35.134  35.217  0.00  0.00    +0.000 A 
ATOM     37  N3  UNL     1      25.179  34.161  36.110  0.00  0.00    +0.000 N 
ATOM     38  C18 UNL     1      24.263  34.687  36.943  0.00  0.00    +0.000 A 
ATOM     39  C19 UNL     1      23.665  34.065  38.037  0.00  0.00    +0.000 A 
ATOM     40  C20 UNL     1      22.737  34.808  38.791  0.00  0.00    +0.000 A 
ATOM     41  C21 UNL     1      22.430  36.140  38.435  0.00  0.00    +0.000 A 
ATOM     42  C22 UNL     1      23.048  36.742  37.323  0.00  0.00    +0.000 A 
ATOM     43  C23 UNL     1      23.964  35.980  36.596  0.00  0.00    +0.000 A 
ATOM     44  H16 UNL     1      25.589  33.202  36.145  0.00  0.00    +0.000 HD
ENDBRANCH  34  35
ENDBRANCH  18  34
TORSDOF 2
ENDMDL
MODEL 10
REMARK VINA RESULT:    -6.775      2.549      6.144
REMARK INTER + INTRA:          -8.935
REMARK INTER:                  -8.817
REMARK INTRA:                  -0.118
REMARK UNBOUND:                -1.368
REMARK  Name = CNP0357158_1.pdb
REMARK  3 active torsions:
REMARK  status: ('A' for Active; 'I' for Inactive)
REMARK    1  A    between atoms: C1_1  and  C2_2
REMARK    2  A    between atoms: C14_18  and  C15_19
REMARK    3  A    between atoms: C15_19  and  C16_20
REMARK                            x       y       z     vdW  Elec       q    Type
REMARK                         _______ _______ _______ _____ _____    ______ ____
ROOT
ATOM      1  C1  UNL     1      18.284  37.817  35.286  0.00  0.00    +0.000 C 
ATOM      2  C2  UNL     1      19.824  37.849  35.192  0.00  0.00    +0.000 C 
ATOM      3  N1  UNL     1      20.265  39.140  34.622  0.00  0.00    +0.000 N 
ATOM      4  C3  UNL     1      21.674  39.223  34.372  0.00  0.00    +0.000 C 
ATOM      5  O1  UNL     1      22.212  40.247  33.876  0.00  0.00    +0.000 OA
ATOM      6  C4  UNL     1      22.438  37.990  34.762  0.00  0.00    +0.000 C 
ATOM      7  C5  UNL     1      22.173  37.843  36.285  0.00  0.00    +0.000 C 
ATOM      8  C6  UNL     1      20.610  37.626  36.556  0.00  0.00    +0.000 C 
ATOM      9  C7  UNL     1      20.160  38.562  37.657  0.00  0.00    +0.000 A 
ATOM     10  C8  UNL     1      20.146  39.963  37.671  0.00  0.00    +0.000 A 
ATOM     11  C9  UNL     1      19.778  40.625  38.853  0.00  0.00    +0.000 A 
ATOM     12  C10 UNL     1      19.454  39.890  40.006  0.00  0.00    +0.000 A 
ATOM     13  C11 UNL     1      19.506  38.488  39.987  0.00  0.00    +0.000 A 
ATOM     14  C12 UNL     1      19.868  37.854  38.796  0.00  0.00    +0.000 A 
ATOM     15  N2  UNL     1      19.999  36.461  38.601  0.00  0.00    +0.000 N 
ATOM     16  C13 UNL     1      20.842  35.630  39.360  0.00  0.00    +0.000 C 
ATOM     17  O2  UNL     1      20.934  35.694  40.614  0.00  0.00    +0.000 OA
ATOM     18  C14 UNL     1      21.656  34.748  38.493  0.00  0.00    +0.000 C 
ATOM     19  N4  UNL     1      21.383  35.228  37.121  0.00  0.00    +0.000 NA
ATOM     20  C24 UNL     1      20.280  36.210  37.199  0.00  0.00    +0.000 C 
ATOM     21  N5  UNL     1      21.764  36.855  34.085  0.00  0.00    +0.000 N 
ATOM     22  C25 UNL     1      20.405  36.788  34.270  0.00  0.00    +0.000 A 
ATOM     23  N6  UNL     1      19.678  35.771  33.741  0.00  0.00    +0.000 NA
ATOM     24  C26 UNL     1      20.281  34.807  32.999  0.00  0.00    +0.000 A 
ATOM     25  C27 UNL     1      19.517  33.768  32.454  0.00  0.00    +0.000 A 
ATOM     26  C28 UNL     1      20.135  32.767  31.700  0.00  0.00    +0.000 A 
ATOM     27  C29 UNL     1      21.517  32.794  31.490  0.00  0.00    +0.000 A 
ATOM     28  C30 UNL     1      22.289  33.826  32.033  0.00  0.00    +0.000 A 
ATOM     29  C31 UNL     1      21.679  34.842  32.790  0.00  0.00    +0.000 A 
ATOM     30  C32 UNL     1      22.415  35.897  33.361  0.00  0.00    +0.000 A 
ATOM     31  O3  UNL     1      23.666  35.955  33.214  0.00  0.00    +0.000 OA
ATOM     32  H4  UNL     1      19.613  39.928  34.403  0.00  0.00    +0.000 HD
ATOM     33  H21 UNL     1      21.110  34.449  36.477  0.00  0.00    +0.000 HD
ENDROOT
BRANCH  18  34
ATOM     34  C15 UNL     1      21.276  33.262  38.670  0.00  0.00    +0.000 C 
BRANCH  34  35
ATOM     35  C16 UNL     1      22.110  32.604  39.730  0.00  0.00    +0.000 A 
ATOM     36  C17 UNL     1      21.762  31.474  40.464  0.00  0.00    +0.000 A 
ATOM     37  N3  UNL     1      22.768  31.121  41.296  0.00  0.00    +0.000 N 
ATOM     38  C18 UNL     1      23.751  32.015  41.090  0.00  0.00    +0.000 A 
ATOM     39  C19 UNL     1      24.997  32.057  41.712  0.00  0.00    +0.000 A 
ATOM     40  C20 UNL     1      25.889  33.077  41.331  0.00  0.00    +0.000 A 
ATOM     41  C21 UNL     1      25.517  34.024  40.352  0.00  0.00    +0.000 A 
ATOM     42  C22 UNL     1      24.251  33.960  39.742  0.00  0.00    +0.000 A 
ATOM     43  C23 UNL     1      23.388  32.936  40.139  0.00  0.00    +0.000 A 
ATOM     44  H16 UNL     1      22.777  30.313  41.957  0.00  0.00    +0.000 HD
ENDBRANCH  34  35
ENDBRANCH  18  34
TORSDOF 2
ENDMDL
