MODEL 1
REMARK VINA RESULT:    -7.375      0.000      0.000
REMARK INTER + INTRA:         -12.416
REMARK INTER:                 -10.823
REMARK INTRA:                  -1.592
REMARK UNBOUND:                -1.592
REMARK  Name = CNP0165924_1.pdb
REMARK  10 active torsions:
REMARK  status: ('A' for Active; 'I' for Inactive)
REMARK    1  A    between atoms: C1_1  and  C2_2
REMARK    2  A    between atoms: C6_8  and  C7_9
REMARK    3  A    between atoms: C8_10  and  O3_11
REMARK    4  A    between atoms: O3_11  and  C9_12
REMARK    5  A    between atoms: C9_12  and  C10_14
REMARK    6  A    between atoms: C10_14  and  N1_15
REMARK    7  A    between atoms: C10_14  and  C19_26
REMARK    8  A    between atoms: C11_16  and  O6_18
REMARK    9  A    between atoms: O6_18  and  C12_19
REMARK   10  A    between atoms: C12_19  and  C13_20
REMARK                            x       y       z     vdW  Elec       q    Type
REMARK                         _______ _______ _______ _____ _____    ______ ____
ROOT
ATOM      1  C10 UNL     1      20.824  36.182  37.425  0.00  0.00    +0.000 C 
ENDROOT
BRANCH   1   2
ATOM      2  C19 UNL     1      20.564  37.437  38.230  0.00  0.00    +0.000 A 
ATOM      3  C20 UNL     1      21.366  38.580  38.058  0.00  0.00    +0.000 A 
ATOM      4  C21 UNL     1      21.126  39.732  38.813  0.00  0.00    +0.000 A 
ATOM      5  C22 UNL     1      20.086  39.756  39.744  0.00  0.00    +0.000 A 
ATOM      6  C23 UNL     1      19.285  38.626  39.924  0.00  0.00    +0.000 A 
ATOM      7  C24 UNL     1      19.523  37.470  39.173  0.00  0.00    +0.000 A 
ENDBRANCH   1   2
BRANCH   1   8
ATOM      8  N1  UNL     1      20.074  35.050  37.983  0.00  0.00    +0.000 N 
ATOM      9  C11 UNL     1      20.710  34.027  38.757  0.00  0.00    +0.000 C 
ATOM     10  O5  UNL     1      21.959  34.043  38.933  0.00  0.00    +0.000 OA
ATOM     11  H9  UNL     1      19.038  34.994  37.865  0.00  0.00    +0.000 HD
BRANCH   9  12
ATOM     12  O6  UNL     1      19.926  33.024  39.336  0.00  0.00    +0.000 OA
BRANCH  12  13
ATOM     13  C12 UNL     1      19.908  31.685  38.850  0.00  0.00    +0.000 C 
BRANCH  13  14
ATOM     14  C13 UNL     1      18.607  31.428  38.145  0.00  0.00    +0.000 A 
ATOM     15  C14 UNL     1      18.520  31.505  36.743  0.00  0.00    +0.000 A 
ATOM     16  C15 UNL     1      17.306  31.245  36.101  0.00  0.00    +0.000 A 
ATOM     17  C16 UNL     1      16.176  30.902  36.851  0.00  0.00    +0.000 A 
ATOM     18  C17 UNL     1      16.256  30.822  38.244  0.00  0.00    +0.000 A 
ATOM     19  C18 UNL     1      17.467  31.084  38.890  0.00  0.00    +0.000 A 
ENDBRANCH  13  14
ENDBRANCH  12  13
ENDBRANCH   9  12
ENDBRANCH   1   8
BRANCH   1  20
ATOM     20  C9  UNL     1      20.453  36.416  35.986  0.00  0.00    +0.000 C 
ATOM     21  O4  UNL     1      21.360  36.443  35.111  0.00  0.00    +0.000 OA
BRANCH  20  22
ATOM     22  O3  UNL     1      19.124  36.716  35.653  0.00  0.00    +0.000 OA
BRANCH  22  32
ATOM     23  C1  UNL     1      17.674  42.859  33.725  0.00  0.00    +0.000 C 
ATOM     24  C2  UNL     1      17.175  41.487  33.352  0.00  0.00    +0.000 A 
ATOM     25  C3  UNL     1      16.150  41.367  32.407  0.00  0.00    +0.000 A 
ATOM     26  C4  UNL     1      15.681  40.099  32.060  0.00  0.00    +0.000 A 
ATOM     27  O1  UNL     1      14.762  39.979  31.207  0.00  0.00    +0.000 OA
ATOM     28  O2  UNL     1      16.198  39.013  32.623  0.00  0.00    +0.000 OA
ATOM     29  C5  UNL     1      17.172  39.061  33.530  0.00  0.00    +0.000 A 
ATOM     30  C6  UNL     1      17.671  37.864  34.085  0.00  0.00    +0.000 A 
ATOM     31  C7  UNL     1      17.083  36.535  33.678  0.00  0.00    +0.000 C 
ATOM     32  C8  UNL     1      18.668  37.915  35.081  0.00  0.00    +0.000 A 
ATOM     33  C25 UNL     1      19.212  39.158  35.450  0.00  0.00    +0.000 A 
ATOM     34  C26 UNL     1      18.734  40.340  34.888  0.00  0.00    +0.000 A 
ATOM     35  C27 UNL     1      17.703  40.312  33.933  0.00  0.00    +0.000 A 
ENDBRANCH  22  32
ENDBRANCH  20  22
ENDBRANCH   1  20
TORSDOF 8
ENDMDL
MODEL 2
REMARK VINA RESULT:    -7.324      3.376      4.999
REMARK INTER + INTRA:         -12.341
REMARK INTER:                 -10.961
REMARK INTRA:                  -1.380
REMARK UNBOUND:                -1.592
REMARK  Name = CNP0165924_1.pdb
REMARK  10 active torsions:
REMARK  status: ('A' for Active; 'I' for Inactive)
REMARK    1  A    between atoms: C1_1  and  C2_2
REMARK    2  A    between atoms: C6_8  and  C7_9
REMARK    3  A    between atoms: C8_10  and  O3_11
REMARK    4  A    between atoms: O3_11  and  C9_12
REMARK    5  A    between atoms: C9_12  and  C10_14
REMARK    6  A    between atoms: C10_14  and  N1_15
REMARK    7  A    between atoms: C10_14  and  C19_26
REMARK    8  A    between atoms: C11_16  and  O6_18
REMARK    9  A    between atoms: O6_18  and  C12_19
REMARK   10  A    between atoms: C12_19  and  C13_20
REMARK                            x       y       z     vdW  Elec       q    Type
REMARK                         _______ _______ _______ _____ _____    ______ ____
ROOT
ATOM      1  C10 UNL     1      22.761  32.861  38.505  0.00  0.00    +0.000 C 
ENDROOT
BRANCH   1   2
ATOM      2  C19 UNL     1      23.557  33.610  39.551  0.00  0.00    +0.000 A 
ATOM      3  C20 UNL     1      24.864  34.051  39.280  0.00  0.00    +0.000 A 
ATOM      4  C21 UNL     1      25.598  34.732  40.256  0.00  0.00    +0.000 A 
ATOM      5  C22 UNL     1      25.035  34.982  41.509  0.00  0.00    +0.000 A 
ATOM      6  C23 UNL     1      23.738  34.546  41.789  0.00  0.00    +0.000 A 
ATOM      7  C24 UNL     1      23.001  33.861  40.818  0.00  0.00    +0.000 A 
ENDBRANCH   1   2
BRANCH   1   8
ATOM      8  N1  UNL     1      21.530  32.314  39.090  0.00  0.00    +0.000 N 
ATOM      9  C11 UNL     1      21.285  30.905  39.161  0.00  0.00    +0.000 C 
ATOM     10  O5  UNL     1      22.106  30.088  38.663  0.00  0.00    +0.000 OA
ATOM     11  H9  UNL     1      20.821  32.951  39.517  0.00  0.00    +0.000 HD
BRANCH   9  12
ATOM     12  O6  UNL     1      20.135  30.445  39.811  0.00  0.00    +0.000 OA
BRANCH  12  13
ATOM     13  C12 UNL     1      19.438  29.271  39.404  0.00  0.00    +0.000 C 
BRANCH  13  14
ATOM     14  C13 UNL     1      18.013  29.622  39.088  0.00  0.00    +0.000 A 
ATOM     15  C14 UNL     1      16.950  28.875  39.628  0.00  0.00    +0.000 A 
ATOM     16  C15 UNL     1      15.629  29.226  39.339  0.00  0.00    +0.000 A 
ATOM     17  C16 UNL     1      15.359  30.324  38.514  0.00  0.00    +0.000 A 
ATOM     18  C17 UNL     1      16.410  31.072  37.976  0.00  0.00    +0.000 A 
ATOM     19  C18 UNL     1      17.733  30.723  38.261  0.00  0.00    +0.000 A 
ENDBRANCH  13  14
ENDBRANCH  12  13
ENDBRANCH   9  12
ENDBRANCH   1   8
BRANCH   1  20
ATOM     20  C9  UNL     1      22.448  33.777  37.354  0.00  0.00    +0.000 C 
ATOM     21  O4  UNL     1      23.359  34.069  36.532  0.00  0.00    +0.000 OA
BRANCH  20  22
ATOM     22  O3  UNL     1      21.187  34.383  37.274  0.00  0.00    +0.000 OA
BRANCH  22  32
ATOM     23  C1  UNL     1      19.293  39.690  40.711  0.00  0.00    +0.000 C 
ATOM     24  C2  UNL     1      19.739  39.453  39.292  0.00  0.00    +0.000 A 
ATOM     25  C3  UNL     1      19.776  40.529  38.398  0.00  0.00    +0.000 A 
ATOM     26  C4  UNL     1      20.186  40.314  37.081  0.00  0.00    +0.000 A 
ATOM     27  O1  UNL     1      20.227  41.276  36.269  0.00  0.00    +0.000 OA
ATOM     28  O2  UNL     1      20.535  39.100  36.675  0.00  0.00    +0.000 OA
ATOM     29  C5  UNL     1      20.519  38.035  37.475  0.00  0.00    +0.000 A 
ATOM     30  C6  UNL     1      20.903  36.774  36.971  0.00  0.00    +0.000 A 
ATOM     31  C7  UNL     1      21.301  36.624  35.523  0.00  0.00    +0.000 C 
ATOM     32  C8  UNL     1      20.840  35.638  37.803  0.00  0.00    +0.000 A 
ATOM     33  C25 UNL     1      20.472  35.789  39.152  0.00  0.00    +0.000 A 
ATOM     34  C26 UNL     1      20.111  37.037  39.656  0.00  0.00    +0.000 A 
ATOM     35  C27 UNL     1      20.117  38.172  38.827  0.00  0.00    +0.000 A 
ENDBRANCH  22  32
ENDBRANCH  20  22
ENDBRANCH   1  20
TORSDOF 8
ENDMDL
MODEL 3
REMARK VINA RESULT:    -7.208      9.767     12.051
REMARK INTER + INTRA:         -12.171
REMARK INTER:                 -10.929
REMARK INTRA:                  -1.242
REMARK UNBOUND:                -1.592
REMARK  Name = CNP0165924_1.pdb
REMARK  10 active torsions:
REMARK  status: ('A' for Active; 'I' for Inactive)
REMARK    1  A    between atoms: C1_1  and  C2_2
REMARK    2  A    between atoms: C6_8  and  C7_9
REMARK    3  A    between atoms: C8_10  and  O3_11
REMARK    4  A    between atoms: O3_11  and  C9_12
REMARK    5  A    between atoms: C9_12  and  C10_14
REMARK    6  A    between atoms: C10_14  and  N1_15
REMARK    7  A    between atoms: C10_14  and  C19_26
REMARK    8  A    between atoms: C11_16  and  O6_18
REMARK    9  A    between atoms: O6_18  and  C12_19
REMARK   10  A    between atoms: C12_19  and  C13_20
REMARK                            x       y       z     vdW  Elec       q    Type
REMARK                         _______ _______ _______ _____ _____    ______ ____
ROOT
ATOM      1  C10 UNL     1      30.847  38.261  38.937  0.00  0.00    +0.000 C 
ENDROOT
BRANCH   1   2
ATOM      2  C19 UNL     1      30.909  38.795  40.351  0.00  0.00    +0.000 A 
ATOM      3  C20 UNL     1      32.072  38.644  41.126  0.00  0.00    +0.000 A 
ATOM      4  C21 UNL     1      32.117  39.130  42.436  0.00  0.00    +0.000 A 
ATOM      5  C22 UNL     1      31.005  39.772  42.985  0.00  0.00    +0.000 A 
ATOM      6  C23 UNL     1      29.844  39.925  42.224  0.00  0.00    +0.000 A 
ATOM      7  C24 UNL     1      29.792  39.437  40.914  0.00  0.00    +0.000 A 
ENDBRANCH   1   2
BRANCH   1   8
ATOM      8  N1  UNL     1      29.607  37.504  38.727  0.00  0.00    +0.000 N 
ATOM      9  C11 UNL     1      29.576  36.073  38.768  0.00  0.00    +0.000 C 
ATOM     10  O5  UNL     1      30.640  35.415  38.929  0.00  0.00    +0.000 OA
ATOM     11  H9  UNL     1      28.700  38.003  38.592  0.00  0.00    +0.000 HD
BRANCH   9  12
ATOM     12  O6  UNL     1      28.348  35.414  38.650  0.00  0.00    +0.000 OA
BRANCH  12  13
ATOM     13  C12 UNL     1      27.102  36.105  38.636  0.00  0.00    +0.000 C 
BRANCH  13  14
ATOM     14  C13 UNL     1      26.301  35.715  39.845  0.00  0.00    +0.000 A 
ATOM     15  C14 UNL     1      25.093  35.005  39.711  0.00  0.00    +0.000 A 
ATOM     16  C15 UNL     1      24.369  34.634  40.847  0.00  0.00    +0.000 A 
ATOM     17  C16 UNL     1      24.847  34.962  42.121  0.00  0.00    +0.000 A 
ATOM     18  C17 UNL     1      26.047  35.664  42.261  0.00  0.00    +0.000 A 
ATOM     19  C18 UNL     1      26.772  36.040  41.127  0.00  0.00    +0.000 A 
ENDBRANCH  13  14
ENDBRANCH  12  13
ENDBRANCH   9  12
ENDBRANCH   1   8
BRANCH   1  20
ATOM     20  C9  UNL     1      30.953  39.400  37.960  0.00  0.00    +0.000 C 
ATOM     21  O4  UNL     1      31.704  40.376  38.229  0.00  0.00    +0.000 OA
BRANCH  20  22
ATOM     22  O3  UNL     1      30.132  39.416  36.824  0.00  0.00    +0.000 OA
BRANCH  22  32
ATOM     23  C1  UNL     1      31.759  41.876  30.919  0.00  0.00    +0.000 C 
ATOM     24  C2  UNL     1      31.732  40.494  31.518  0.00  0.00    +0.000 A 
ATOM     25  C3  UNL     1      32.090  39.398  30.725  0.00  0.00    +0.000 A 
ATOM     26  C4  UNL     1      32.063  38.115  31.275  0.00  0.00    +0.000 A 
ATOM     27  O1  UNL     1      32.387  37.122  30.571  0.00  0.00    +0.000 OA
ATOM     28  O2  UNL     1      31.698  37.931  32.537  0.00  0.00    +0.000 OA
ATOM     29  C5  UNL     1      31.343  38.932  33.342  0.00  0.00    +0.000 A 
ATOM     30  C6  UNL     1      30.966  38.658  34.674  0.00  0.00    +0.000 A 
ATOM     31  C7  UNL     1      30.933  37.236  35.178  0.00  0.00    +0.000 C 
ATOM     32  C8  UNL     1      30.544  39.711  35.513  0.00  0.00    +0.000 A 
ATOM     33  C25 UNL     1      30.583  41.032  35.035  0.00  0.00    +0.000 A 
ATOM     34  C26 UNL     1      30.975  41.306  33.726  0.00  0.00    +0.000 A 
ATOM     35  C27 UNL     1      31.347  40.264  32.859  0.00  0.00    +0.000 A 
ENDBRANCH  22  32
ENDBRANCH  20  22
ENDBRANCH   1  20
TORSDOF 8
ENDMDL
MODEL 4
REMARK VINA RESULT:    -7.066      2.090      3.843
REMARK INTER + INTRA:         -11.963
REMARK INTER:                 -10.055
REMARK INTRA:                  -1.907
REMARK UNBOUND:                -1.592
REMARK  Name = CNP0165924_1.pdb
REMARK  10 active torsions:
REMARK  status: ('A' for Active; 'I' for Inactive)
REMARK    1  A    between atoms: C1_1  and  C2_2
REMARK    2  A    between atoms: C6_8  and  C7_9
REMARK    3  A    between atoms: C8_10  and  O3_11
REMARK    4  A    between atoms: O3_11  and  C9_12
REMARK    5  A    between atoms: C9_12  and  C10_14
REMARK    6  A    between atoms: C10_14  and  N1_15
REMARK    7  A    between atoms: C10_14  and  C19_26
REMARK    8  A    between atoms: C11_16  and  O6_18
REMARK    9  A    between atoms: O6_18  and  C12_19
REMARK   10  A    between atoms: C12_19  and  C13_20
REMARK                            x       y       z     vdW  Elec       q    Type
REMARK                         _______ _______ _______ _____ _____    ______ ____
ROOT
ATOM      1  C10 UNL     1      21.135  36.110  37.584  0.00  0.00    +0.000 C 
ENDROOT
BRANCH   1   2
ATOM      2  C19 UNL     1      20.740  37.394  38.280  0.00  0.00    +0.000 A 
ATOM      3  C20 UNL     1      19.768  37.391  39.296  0.00  0.00    +0.000 A 
ATOM      4  C21 UNL     1      19.400  38.583  39.926  0.00  0.00    +0.000 A 
ATOM      5  C22 UNL     1      19.998  39.788  39.552  0.00  0.00    +0.000 A 
ATOM      6  C23 UNL     1      20.963  39.802  38.543  0.00  0.00    +0.000 A 
ATOM      7  C24 UNL     1      21.332  38.613  37.906  0.00  0.00    +0.000 A 
ENDBRANCH   1   2
BRANCH   1   8
ATOM      8  N1  UNL     1      20.268  35.005  38.013  0.00  0.00    +0.000 N 
ATOM      9  C11 UNL     1      20.708  34.018  38.952  0.00  0.00    +0.000 C 
ATOM     10  O5  UNL     1      21.888  34.039  39.396  0.00  0.00    +0.000 OA
ATOM     11  H9  UNL     1      19.282  34.946  37.674  0.00  0.00    +0.000 HD
BRANCH   9  12
ATOM     12  O6  UNL     1      19.805  33.043  39.389  0.00  0.00    +0.000 OA
BRANCH  12  13
ATOM     13  C12 UNL     1      19.815  31.707  38.893  0.00  0.00    +0.000 C 
BRANCH  13  14
ATOM     14  C13 UNL     1      18.502  31.412  38.228  0.00  0.00    +0.000 A 
ATOM     15  C14 UNL     1      18.391  31.398  36.826  0.00  0.00    +0.000 A 
ATOM     16  C15 UNL     1      17.166  31.103  36.223  0.00  0.00    +0.000 A 
ATOM     17  C16 UNL     1      16.046  30.815  37.013  0.00  0.00    +0.000 A 
ATOM     18  C17 UNL     1      16.150  30.825  38.406  0.00  0.00    +0.000 A 
ATOM     19  C18 UNL     1      17.373  31.122  39.013  0.00  0.00    +0.000 A 
ENDBRANCH  13  14
ENDBRANCH  12  13
ENDBRANCH   9  12
ENDBRANCH   1   8
BRANCH   1  20
ATOM     20  C9  UNL     1      21.065  36.299  36.093  0.00  0.00    +0.000 C 
ATOM     21  O4  UNL     1      22.135  36.345  35.426  0.00  0.00    +0.000 OA
BRANCH  20  22
ATOM     22  O3  UNL     1      19.826  36.537  35.482  0.00  0.00    +0.000 OA
BRANCH  22  32
ATOM     23  C1  UNL     1      17.237  31.473  32.133  0.00  0.00    +0.000 C 
ATOM     24  C2  UNL     1      16.874  32.926  32.302  0.00  0.00    +0.000 A 
ATOM     25  C3  UNL     1      15.765  33.438  31.618  0.00  0.00    +0.000 A 
ATOM     26  C4  UNL     1      15.428  34.784  31.768  0.00  0.00    +0.000 A 
ATOM     27  O1  UNL     1      14.430  35.254  31.161  0.00  0.00    +0.000 OA
ATOM     28  O2  UNL     1      16.151  35.576  32.550  0.00  0.00    +0.000 OA
ATOM     29  C5  UNL     1      17.218  35.151  33.224  0.00  0.00    +0.000 A 
ATOM     30  C6  UNL     1      17.939  36.053  34.035  0.00  0.00    +0.000 A 
ATOM     31  C7  UNL     1      17.524  37.501  34.115  0.00  0.00    +0.000 C 
ATOM     32  C8  UNL     1      19.097  35.616  34.712  0.00  0.00    +0.000 A 
ATOM     33  C25 UNL     1      19.472  34.263  34.634  0.00  0.00    +0.000 A 
ATOM     34  C26 UNL     1      18.750  33.367  33.850  0.00  0.00    +0.000 A 
ATOM     35  C27 UNL     1      17.625  33.797  33.126  0.00  0.00    +0.000 A 
ENDBRANCH  22  32
ENDBRANCH  20  22
ENDBRANCH   1  20
TORSDOF 8
ENDMDL
MODEL 5
REMARK VINA RESULT:    -7.053      2.676      8.659
REMARK INTER + INTRA:         -11.944
REMARK INTER:                 -10.060
REMARK INTRA:                  -1.885
REMARK UNBOUND:                -1.592
REMARK  Name = CNP0165924_1.pdb
REMARK  10 active torsions:
REMARK  status: ('A' for Active; 'I' for Inactive)
REMARK    1  A    between atoms: C1_1  and  C2_2
REMARK    2  A    between atoms: C6_8  and  C7_9
REMARK    3  A    between atoms: C8_10  and  O3_11
REMARK    4  A    between atoms: O3_11  and  C9_12
REMARK    5  A    between atoms: C9_12  and  C10_14
REMARK    6  A    between atoms: C10_14  and  N1_15
REMARK    7  A    between atoms: C10_14  and  C19_26
REMARK    8  A    between atoms: C11_16  and  O6_18
REMARK    9  A    between atoms: O6_18  and  C12_19
REMARK   10  A    between atoms: C12_19  and  C13_20
REMARK                            x       y       z     vdW  Elec       q    Type
REMARK                         _______ _______ _______ _____ _____    ______ ____
ROOT
ATOM      1  C10 UNL     1      18.900  37.097  35.961  0.00  0.00    +0.000 C 
ENDROOT
BRANCH   1   2
ATOM      2  C19 UNL     1      19.282  37.970  37.136  0.00  0.00    +0.000 A 
ATOM      3  C20 UNL     1      19.034  37.548  38.455  0.00  0.00    +0.000 A 
ATOM      4  C21 UNL     1      19.380  38.366  39.535  0.00  0.00    +0.000 A 
ATOM      5  C22 UNL     1      19.976  39.609  39.312  0.00  0.00    +0.000 A 
ATOM      6  C23 UNL     1      20.224  40.037  38.006  0.00  0.00    +0.000 A 
ATOM      7  C24 UNL     1      19.877  39.225  36.921  0.00  0.00    +0.000 A 
ENDBRANCH   1   2
BRANCH   1   8
ATOM      8  N1  UNL     1      18.458  37.922  34.830  0.00  0.00    +0.000 N 
ATOM      9  C11 UNL     1      17.328  37.566  34.027  0.00  0.00    +0.000 C 
ATOM     10  O5  UNL     1      16.710  36.487  34.238  0.00  0.00    +0.000 OA
ATOM     11  H9  UNL     1      18.938  38.825  34.617  0.00  0.00    +0.000 HD
BRANCH   9  12
ATOM     12  O6  UNL     1      16.904  38.440  33.021  0.00  0.00    +0.000 OA
BRANCH  12  13
ATOM     13  C12 UNL     1      16.501  39.780  33.286  0.00  0.00    +0.000 C 
BRANCH  13  14
ATOM     14  C13 UNL     1      17.718  40.646  33.441  0.00  0.00    +0.000 A 
ATOM     15  C14 UNL     1      17.901  41.434  34.592  0.00  0.00    +0.000 A 
ATOM     16  C15 UNL     1      19.048  42.219  34.729  0.00  0.00    +0.000 A 
ATOM     17  C16 UNL     1      20.021  42.220  33.723  0.00  0.00    +0.000 A 
ATOM     18  C17 UNL     1      19.848  41.438  32.579  0.00  0.00    +0.000 A 
ATOM     19  C18 UNL     1      18.700  40.653  32.437  0.00  0.00    +0.000 A 
ENDBRANCH  13  14
ENDBRANCH  12  13
ENDBRANCH   9  12
ENDBRANCH   1   8
BRANCH   1  20
ATOM     20  C9  UNL     1      20.067  36.232  35.571  0.00  0.00    +0.000 C 
ATOM     21  O4  UNL     1      20.516  36.295  34.395  0.00  0.00    +0.000 OA
BRANCH  20  22
ATOM     22  O3  UNL     1      20.564  35.287  36.481  0.00  0.00    +0.000 OA
BRANCH  22  32
ATOM     23  C1  UNL     1      26.701  36.070  38.778  0.00  0.00    +0.000 C 
ATOM     24  C2  UNL     1      25.414  35.539  39.356  0.00  0.00    +0.000 A 
ATOM     25  C3  UNL     1      25.405  35.048  40.667  0.00  0.00    +0.000 A 
ATOM     26  C4  UNL     1      24.217  34.553  41.206  0.00  0.00    +0.000 A 
ATOM     27  O1  UNL     1      24.196  34.112  42.386  0.00  0.00    +0.000 OA
ATOM     28  O2  UNL     1      23.103  34.542  40.483  0.00  0.00    +0.000 OA
ATOM     29  C5  UNL     1      23.048  34.991  39.231  0.00  0.00    +0.000 A 
ATOM     30  C6  UNL     1      21.827  34.947  38.525  0.00  0.00    +0.000 A 
ATOM     31  C7  UNL     1      20.595  34.363  39.172  0.00  0.00    +0.000 C 
ATOM     32  C8  UNL     1      21.778  35.377  37.183  0.00  0.00    +0.000 A 
ATOM     33  C25 UNL     1      22.929  35.923  36.590  0.00  0.00    +0.000 A 
ATOM     34  C26 UNL     1      24.131  35.987  37.293  0.00  0.00    +0.000 A 
ATOM     35  C27 UNL     1      24.212  35.513  38.613  0.00  0.00    +0.000 A 
ENDBRANCH  22  32
ENDBRANCH  20  22
ENDBRANCH   1  20
TORSDOF 8
ENDMDL
MODEL 6
REMARK VINA RESULT:    -7.002      3.572      4.910
REMARK INTER + INTRA:         -11.868
REMARK INTER:                 -10.403
REMARK INTRA:                  -1.465
REMARK UNBOUND:                -1.592
REMARK  Name = CNP0165924_1.pdb
REMARK  10 active torsions:
REMARK  status: ('A' for Active; 'I' for Inactive)
REMARK    1  A    between atoms: C1_1  and  C2_2
REMARK    2  A    between atoms: C6_8  and  C7_9
REMARK    3  A    between atoms: C8_10  and  O3_11
REMARK    4  A    between atoms: O3_11  and  C9_12
REMARK    5  A    between atoms: C9_12  and  C10_14
REMARK    6  A    between atoms: C10_14  and  N1_15
REMARK    7  A    between atoms: C10_14  and  C19_26
REMARK    8  A    between atoms: C11_16  and  O6_18
REMARK    9  A    between atoms: O6_18  and  C12_19
REMARK   10  A    between atoms: C12_19  and  C13_20
REMARK                            x       y       z     vdW  Elec       q    Type
REMARK                         _______ _______ _______ _____ _____    ______ ____
ROOT
ATOM      1  C10 UNL     1      20.525  37.808  36.777  0.00  0.00    +0.000 C 
ENDROOT
BRANCH   1   2
ATOM      2  C19 UNL     1      20.108  38.652  37.962  0.00  0.00    +0.000 A 
ATOM      3  C20 UNL     1      20.110  40.055  37.880  0.00  0.00    +0.000 A 
ATOM      4  C21 UNL     1      19.735  40.828  38.983  0.00  0.00    +0.000 A 
ATOM      5  C22 UNL     1      19.352  40.210  40.176  0.00  0.00    +0.000 A 
ATOM      6  C23 UNL     1      19.349  38.817  40.268  0.00  0.00    +0.000 A 
ATOM      7  C24 UNL     1      19.727  38.038  39.169  0.00  0.00    +0.000 A 
ENDBRANCH   1   2
BRANCH   1   8
ATOM      8  N1  UNL     1      20.905  36.459  37.216  0.00  0.00    +0.000 N 
ATOM      9  C11 UNL     1      22.264  36.108  37.499  0.00  0.00    +0.000 C 
ATOM     10  O5  UNL     1      23.190  36.946  37.320  0.00  0.00    +0.000 OA
ATOM     11  H9  UNL     1      20.174  35.732  37.379  0.00  0.00    +0.000 HD
BRANCH   9  12
ATOM     12  O6  UNL     1      22.549  34.834  37.999  0.00  0.00    +0.000 OA
BRANCH  12  13
ATOM     13  C12 UNL     1      23.880  34.365  38.196  0.00  0.00    +0.000 C 
BRANCH  13  14
ATOM     14  C13 UNL     1      24.299  34.633  39.613  0.00  0.00    +0.000 A 
ATOM     15  C14 UNL     1      23.462  34.290  40.689  0.00  0.00    +0.000 A 
ATOM     16  C15 UNL     1      23.875  34.529  42.002  0.00  0.00    +0.000 A 
ATOM     17  C16 UNL     1      25.125  35.107  42.250  0.00  0.00    +0.000 A 
ATOM     18  C17 UNL     1      25.963  35.449  41.185  0.00  0.00    +0.000 A 
ATOM     19  C18 UNL     1      25.553  35.213  39.870  0.00  0.00    +0.000 A 
ENDBRANCH  13  14
ENDBRANCH  12  13
ENDBRANCH   9  12
ENDBRANCH   1   8
BRANCH   1  20
ATOM     20  C9  UNL     1      19.405  37.751  35.775  0.00  0.00    +0.000 C 
ATOM     21  O4  UNL     1      18.390  37.045  36.023  0.00  0.00    +0.000 OA
BRANCH  20  22
ATOM     22  O3  UNL     1      19.551  38.388  34.535  0.00  0.00    +0.000 OA
BRANCH  22  32
ATOM     23  C1  UNL     1      15.529  43.115  32.291  0.00  0.00    +0.000 C 
ATOM     24  C2  UNL     1      16.944  43.087  32.808  0.00  0.00    +0.000 A 
ATOM     25  C3  UNL     1      17.683  44.276  32.842  0.00  0.00    +0.000 A 
ATOM     26  C4  UNL     1      18.995  44.254  33.316  0.00  0.00    +0.000 A 
ATOM     27  O1  UNL     1      19.668  45.319  33.356  0.00  0.00    +0.000 OA
ATOM     28  O2  UNL     1      19.544  43.118  33.729  0.00  0.00    +0.000 OA
ATOM     29  C5  UNL     1      18.895  41.955  33.719  0.00  0.00    +0.000 A 
ATOM     30  C6  UNL     1      19.545  40.787  34.174  0.00  0.00    +0.000 A 
ATOM     31  C7  UNL     1      20.979  40.848  34.639  0.00  0.00    +0.000 C 
ATOM     32  C8  UNL     1      18.876  39.547  34.118  0.00  0.00    +0.000 A 
ATOM     33  C25 UNL     1      17.539  39.502  33.687  0.00  0.00    +0.000 A 
ATOM     34  C26 UNL     1      16.890  40.658  33.256  0.00  0.00    +0.000 A 
ATOM     35  C27 UNL     1      17.558  41.894  33.254  0.00  0.00    +0.000 A 
ENDBRANCH  22  32
ENDBRANCH  20  22
ENDBRANCH   1  20
TORSDOF 8
ENDMDL
MODEL 7
REMARK VINA RESULT:    -6.977      1.998      3.056
REMARK INTER + INTRA:         -11.832
REMARK INTER:                 -10.716
REMARK INTRA:                  -1.116
REMARK UNBOUND:                -1.592
REMARK  Name = CNP0165924_1.pdb
REMARK  10 active torsions:
REMARK  status: ('A' for Active; 'I' for Inactive)
REMARK    1  A    between atoms: C1_1  and  C2_2
REMARK    2  A    between atoms: C6_8  and  C7_9
REMARK    3  A    between atoms: C8_10  and  O3_11
REMARK    4  A    between atoms: O3_11  and  C9_12
REMARK    5  A    between atoms: C9_12  and  C10_14
REMARK    6  A    between atoms: C10_14  and  N1_15
REMARK    7  A    between atoms: C10_14  and  C19_26
REMARK    8  A    between atoms: C11_16  and  O6_18
REMARK    9  A    between atoms: O6_18  and  C12_19
REMARK   10  A    between atoms: C12_19  and  C13_20
REMARK                            x       y       z     vdW  Elec       q    Type
REMARK                         _______ _______ _______ _____ _____    ______ ____
ROOT
ATOM      1  C10 UNL     1      20.028  37.309  36.878  0.00  0.00    +0.000 C 
ENDROOT
BRANCH   1   2
ATOM      2  C19 UNL     1      19.849  38.306  38.001  0.00  0.00    +0.000 A 
ATOM      3  C20 UNL     1      19.533  37.874  39.302  0.00  0.00    +0.000 A 
ATOM      4  C21 UNL     1      19.357  38.802  40.332  0.00  0.00    +0.000 A 
ATOM      5  C22 UNL     1      19.497  40.169  40.077  0.00  0.00    +0.000 A 
ATOM      6  C23 UNL     1      19.809  40.608  38.789  0.00  0.00    +0.000 A 
ATOM      7  C24 UNL     1      19.982  39.683  37.753  0.00  0.00    +0.000 A 
ENDBRANCH   1   2
BRANCH   1   8
ATOM      8  N1  UNL     1      19.832  35.940  37.370  0.00  0.00    +0.000 N 
ATOM      9  C11 UNL     1      20.472  34.815  36.758  0.00  0.00    +0.000 C 
ATOM     10  O5  UNL     1      21.186  34.968  35.730  0.00  0.00    +0.000 OA
ATOM     11  H9  UNL     1      19.251  35.763  38.220  0.00  0.00    +0.000 HD
BRANCH   9  12
ATOM     12  O6  UNL     1      20.317  33.548  37.329  0.00  0.00    +0.000 OA
BRANCH  12  13
ATOM     13  C12 UNL     1      20.022  32.387  36.558  0.00  0.00    +0.000 C 
BRANCH  13  14
ATOM     14  C13 UNL     1      18.731  31.786  37.034  0.00  0.00    +0.000 A 
ATOM     15  C14 UNL     1      18.513  31.535  38.401  0.00  0.00    +0.000 A 
ATOM     16  C15 UNL     1      17.299  30.993  38.830  0.00  0.00    +0.000 A 
ATOM     17  C16 UNL     1      16.294  30.702  37.901  0.00  0.00    +0.000 A 
ATOM     18  C17 UNL     1      16.502  30.951  36.542  0.00  0.00    +0.000 A 
ATOM     19  C18 UNL     1      17.716  31.491  36.109  0.00  0.00    +0.000 A 
ENDBRANCH  13  14
ENDBRANCH  12  13
ENDBRANCH   9  12
ENDBRANCH   1   8
BRANCH   1  20
ATOM     20  C9  UNL     1      19.067  37.622  35.763  0.00  0.00    +0.000 C 
ATOM     21  O4  UNL     1      17.924  37.088  35.766  0.00  0.00    +0.000 OA
BRANCH  20  22
ATOM     22  O3  UNL     1      19.492  38.406  34.682  0.00  0.00    +0.000 OA
BRANCH  22  32
ATOM     23  C1  UNL     1      15.680  43.156  32.139  0.00  0.00    +0.000 C 
ATOM     24  C2  UNL     1      17.065  43.114  32.730  0.00  0.00    +0.000 A 
ATOM     25  C3  UNL     1      17.822  44.290  32.781  0.00  0.00    +0.000 A 
ATOM     26  C4  UNL     1      19.107  44.256  33.325  0.00  0.00    +0.000 A 
ATOM     27  O1  UNL     1      19.796  45.309  33.380  0.00  0.00    +0.000 OA
ATOM     28  O2  UNL     1      19.612  43.119  33.788  0.00  0.00    +0.000 OA
ATOM     29  C5  UNL     1      18.944  41.967  33.765  0.00  0.00    +0.000 A 
ATOM     30  C6  UNL     1      19.548  40.798  34.275  0.00  0.00    +0.000 A 
ATOM     31  C7  UNL     1      20.956  40.843  34.815  0.00  0.00    +0.000 C 
ATOM     32  C8  UNL     1      18.860  39.568  34.208  0.00  0.00    +0.000 A 
ATOM     33  C25 UNL     1      17.548  39.537  33.707  0.00  0.00    +0.000 A 
ATOM     34  C26 UNL     1      16.943  40.695  33.221  0.00  0.00    +0.000 A 
ATOM     35  C27 UNL     1      17.632  41.920  33.231  0.00  0.00    +0.000 A 
ENDBRANCH  22  32
ENDBRANCH  20  22
ENDBRANCH   1  20
TORSDOF 8
ENDMDL
MODEL 8
REMARK VINA RESULT:    -6.975      3.001      8.725
REMARK INTER + INTRA:         -11.829
REMARK INTER:                  -9.650
REMARK INTRA:                  -2.179
REMARK UNBOUND:                -1.592
REMARK  Name = CNP0165924_1.pdb
REMARK  10 active torsions:
REMARK  status: ('A' for Active; 'I' for Inactive)
REMARK    1  A    between atoms: C1_1  and  C2_2
REMARK    2  A    between atoms: C6_8  and  C7_9
REMARK    3  A    between atoms: C8_10  and  O3_11
REMARK    4  A    between atoms: O3_11  and  C9_12
REMARK    5  A    between atoms: C9_12  and  C10_14
REMARK    6  A    between atoms: C10_14  and  N1_15
REMARK    7  A    between atoms: C10_14  and  C19_26
REMARK    8  A    between atoms: C11_16  and  O6_18
REMARK    9  A    between atoms: O6_18  and  C12_19
REMARK   10  A    between atoms: C12_19  and  C13_20
REMARK                            x       y       z     vdW  Elec       q    Type
REMARK                         _______ _______ _______ _____ _____    ______ ____
ROOT
ATOM      1  C10 UNL     1      19.039  36.724  36.065  0.00  0.00    +0.000 C 
ENDROOT
BRANCH   1   2
ATOM      2  C19 UNL     1      19.340  37.780  37.106  0.00  0.00    +0.000 A 
ATOM      3  C20 UNL     1      19.145  37.516  38.473  0.00  0.00    +0.000 A 
ATOM      4  C21 UNL     1      19.414  38.500  39.429  0.00  0.00    +0.000 A 
ATOM      5  C22 UNL     1      19.882  39.755  39.031  0.00  0.00    +0.000 A 
ATOM      6  C23 UNL     1      20.076  40.027  37.675  0.00  0.00    +0.000 A 
ATOM      7  C24 UNL     1      19.804  39.047  36.715  0.00  0.00    +0.000 A 
ENDBRANCH   1   2
BRANCH   1   8
ATOM      8  N1  UNL     1      18.940  37.331  34.732  0.00  0.00    +0.000 N 
ATOM      9  C11 UNL     1      17.754  37.226  33.936  0.00  0.00    +0.000 C 
ATOM     10  O5  UNL     1      16.770  36.551  34.343  0.00  0.00    +0.000 OA
ATOM     11  H9  UNL     1      19.728  37.901  34.352  0.00  0.00    +0.000 HD
BRANCH   9  12
ATOM     12  O6  UNL     1      17.691  37.903  32.714  0.00  0.00    +0.000 OA
BRANCH  12  13
ATOM     13  C12 UNL     1      17.146  39.213  32.586  0.00  0.00    +0.000 C 
BRANCH  13  14
ATOM     14  C13 UNL     1      18.071  40.203  33.232  0.00  0.00    +0.000 A 
ATOM     15  C14 UNL     1      19.410  40.317  32.816  0.00  0.00    +0.000 A 
ATOM     16  C15 UNL     1      20.252  41.257  33.415  0.00  0.00    +0.000 A 
ATOM     17  C16 UNL     1      19.765  42.091  34.428  0.00  0.00    +0.000 A 
ATOM     18  C17 UNL     1      18.435  41.986  34.844  0.00  0.00    +0.000 A 
ATOM     19  C18 UNL     1      17.590  41.045  34.249  0.00  0.00    +0.000 A 
ENDBRANCH  13  14
ENDBRANCH  12  13
ENDBRANCH   9  12
ENDBRANCH   1   8
BRANCH   1  20
ATOM     20  C9  UNL     1      20.105  35.663  36.095  0.00  0.00    +0.000 C 
ATOM     21  O4  UNL     1      19.767  34.448  36.083  0.00  0.00    +0.000 OA
BRANCH  20  22
ATOM     22  O3  UNL     1      21.447  36.034  36.253  0.00  0.00    +0.000 OA
BRANCH  22  32
ATOM     23  C1  UNL     1      24.311  34.275  41.933  0.00  0.00    +0.000 C 
ATOM     24  C2  UNL     1      24.802  34.883  40.644  0.00  0.00    +0.000 A 
ATOM     25  C3  UNL     1      26.155  35.217  40.518  0.00  0.00    +0.000 A 
ATOM     26  C4  UNL     1      26.613  35.784  39.328  0.00  0.00    +0.000 A 
ATOM     27  O1  UNL     1      27.830  36.085  39.202  0.00  0.00    +0.000 OA
ATOM     28  O2  UNL     1      25.776  36.010  38.323  0.00  0.00    +0.000 OA
ATOM     29  C5  UNL     1      24.478  35.717  38.382  0.00  0.00    +0.000 A 
ATOM     30  C6  UNL     1      23.649  35.986  37.272  0.00  0.00    +0.000 A 
ATOM     31  C7  UNL     1      24.221  36.633  36.035  0.00  0.00    +0.000 C 
ATOM     32  C8  UNL     1      22.266  35.722  37.351  0.00  0.00    +0.000 A 
ATOM     33  C25 UNL     1      21.743  35.116  38.506  0.00  0.00    +0.000 A 
ATOM     34  C26 UNL     1      22.565  34.831  39.596  0.00  0.00    +0.000 A 
ATOM     35  C27 UNL     1      23.936  35.137  39.556  0.00  0.00    +0.000 A 
ENDBRANCH  22  32
ENDBRANCH  20  22
ENDBRANCH   1  20
TORSDOF 8
ENDMDL
MODEL 9
REMARK VINA RESULT:    -6.937      3.491      5.908
REMARK INTER + INTRA:         -11.773
REMARK INTER:                 -10.270
REMARK INTRA:                  -1.503
REMARK UNBOUND:                -1.592
REMARK  Name = CNP0165924_1.pdb
REMARK  10 active torsions:
REMARK  status: ('A' for Active; 'I' for Inactive)
REMARK    1  A    between atoms: C1_1  and  C2_2
REMARK    2  A    between atoms: C6_8  and  C7_9
REMARK    3  A    between atoms: C8_10  and  O3_11
REMARK    4  A    between atoms: O3_11  and  C9_12
REMARK    5  A    between atoms: C9_12  and  C10_14
REMARK    6  A    between atoms: C10_14  and  N1_15
REMARK    7  A    between atoms: C10_14  and  C19_26
REMARK    8  A    between atoms: C11_16  and  O6_18
REMARK    9  A    between atoms: O6_18  and  C12_19
REMARK   10  A    between atoms: C12_19  and  C13_20
REMARK                            x       y       z     vdW  Elec       q    Type
REMARK                         _______ _______ _______ _____ _____    ______ ____
ROOT
ATOM      1  C10 UNL     1      20.202  36.346  38.562  0.00  0.00    +0.000 C 
ENDROOT
BRANCH   1   2
ATOM      2  C19 UNL     1      19.671  36.314  37.145  0.00  0.00    +0.000 A 
ATOM      3  C20 UNL     1      20.204  35.421  36.198  0.00  0.00    +0.000 A 
ATOM      4  C21 UNL     1      19.716  35.405  34.888  0.00  0.00    +0.000 A 
ATOM      5  C22 UNL     1      18.692  36.277  34.511  0.00  0.00    +0.000 A 
ATOM      6  C23 UNL     1      18.158  37.169  35.443  0.00  0.00    +0.000 A 
ATOM      7  C24 UNL     1      18.645  37.191  36.754  0.00  0.00    +0.000 A 
ENDBRANCH   1   2
BRANCH   1   8
ATOM      8  N1  UNL     1      21.499  35.663  38.640  0.00  0.00    +0.000 N 
ATOM      9  C11 UNL     1      21.751  34.619  39.587  0.00  0.00    +0.000 C 
ATOM     10  O5  UNL     1      20.870  34.295  40.429  0.00  0.00    +0.000 OA
ATOM     11  H9  UNL     1      22.259  35.895  37.962  0.00  0.00    +0.000 HD
BRANCH   9  12
ATOM     12  O6  UNL     1      22.977  33.946  39.550  0.00  0.00    +0.000 OA
BRANCH  12  13
ATOM     13  C12 UNL     1      24.120  34.467  38.879  0.00  0.00    +0.000 C 
BRANCH  13  14
ATOM     14  C13 UNL     1      25.075  35.038  39.889  0.00  0.00    +0.000 A 
ATOM     15  C14 UNL     1      24.875  34.832  41.266  0.00  0.00    +0.000 A 
ATOM     16  C15 UNL     1      25.782  35.354  42.191  0.00  0.00    +0.000 A 
ATOM     17  C16 UNL     1      26.895  36.079  41.750  0.00  0.00    +0.000 A 
ATOM     18  C17 UNL     1      27.101  36.285  40.383  0.00  0.00    +0.000 A 
ATOM     19  C18 UNL     1      26.194  35.767  39.454  0.00  0.00    +0.000 A 
ENDBRANCH  13  14
ENDBRANCH  12  13
ENDBRANCH   9  12
ENDBRANCH   1   8
BRANCH   1  20
ATOM     20  C9  UNL     1      20.316  37.771  39.028  0.00  0.00    +0.000 C 
ATOM     21  O4  UNL     1      19.464  38.224  39.841  0.00  0.00    +0.000 OA
BRANCH  20  22
ATOM     22  O3  UNL     1      21.292  38.607  38.469  0.00  0.00    +0.000 OA
BRANCH  22  32
ATOM     23  C1  UNL     1      22.105  40.206  32.118  0.00  0.00    +0.000 C 
ATOM     24  C2  UNL     1      21.282  40.760  33.251  0.00  0.00    +0.000 A 
ATOM     25  C3  UNL     1      20.486  41.890  33.029  0.00  0.00    +0.000 A 
ATOM     26  C4  UNL     1      19.724  42.409  34.077  0.00  0.00    +0.000 A 
ATOM     27  O1  UNL     1      19.001  43.423  33.887  0.00  0.00    +0.000 OA
ATOM     28  O2  UNL     1      19.754  41.842  35.276  0.00  0.00    +0.000 OA
ATOM     29  C5  UNL     1      20.492  40.769  35.552  0.00  0.00    +0.000 A 
ATOM     30  C6  UNL     1      20.473  40.221  36.853  0.00  0.00    +0.000 A 
ATOM     31  C7  UNL     1      19.646  40.867  37.937  0.00  0.00    +0.000 C 
ATOM     32  C8  UNL     1      21.291  39.114  37.159  0.00  0.00    +0.000 A 
ATOM     33  C25 UNL     1      22.055  38.517  36.141  0.00  0.00    +0.000 A 
ATOM     34  C26 UNL     1      22.060  39.045  34.851  0.00  0.00    +0.000 A 
ATOM     35  C27 UNL     1      21.292  40.180  34.541  0.00  0.00    +0.000 A 
ENDBRANCH  22  32
ENDBRANCH  20  22
ENDBRANCH   1  20
TORSDOF 8
ENDMDL
MODEL 10
REMARK VINA RESULT:    -6.823      3.620     10.050
REMARK INTER + INTRA:         -11.606
REMARK INTER:                 -10.524
REMARK INTRA:                  -1.082
REMARK UNBOUND:                -1.592
REMARK  Name = CNP0165924_1.pdb
REMARK  10 active torsions:
REMARK  status: ('A' for Active; 'I' for Inactive)
REMARK    1  A    between atoms: C1_1  and  C2_2
REMARK    2  A    between atoms: C6_8  and  C7_9
REMARK    3  A    between atoms: C8_10  and  O3_11
REMARK    4  A    between atoms: O3_11  and  C9_12
REMARK    5  A    between atoms: C9_12  and  C10_14
REMARK    6  A    between atoms: C10_14  and  N1_15
REMARK    7  A    between atoms: C10_14  and  C19_26
REMARK    8  A    between atoms: C11_16  and  O6_18
REMARK    9  A    between atoms: O6_18  and  C12_19
REMARK   10  A    between atoms: C12_19  and  C13_20
REMARK                            x       y       z     vdW  Elec       q    Type
REMARK                         _______ _______ _______ _____ _____    ______ ____
ROOT
ATOM      1  C10 UNL     1      20.188  32.465  37.362  0.00  0.00    +0.000 C 
ENDROOT
BRANCH   1   2
ATOM      2  C19 UNL     1      18.825  31.818  37.465  0.00  0.00    +0.000 A 
ATOM      3  C20 UNL     1      18.065  31.555  36.311  0.00  0.00    +0.000 A 
ATOM      4  C21 UNL     1      16.801  30.967  36.415  0.00  0.00    +0.000 A 
ATOM      5  C22 UNL     1      16.283  30.634  37.668  0.00  0.00    +0.000 A 
ATOM      6  C23 UNL     1      17.029  30.892  38.820  0.00  0.00    +0.000 A 
ATOM      7  C24 UNL     1      18.293  31.484  38.722  0.00  0.00    +0.000 A 
ENDBRANCH   1   2
BRANCH   1   8
ATOM      8  N1  UNL     1      20.132  33.857  37.826  0.00  0.00    +0.000 N 
ATOM      9  C11 UNL     1      20.816  34.913  37.142  0.00  0.00    +0.000 C 
ATOM     10  O5  UNL     1      21.542  34.660  36.142  0.00  0.00    +0.000 OA
ATOM     11  H9  UNL     1      19.543  34.115  38.648  0.00  0.00    +0.000 HD
BRANCH   9  12
ATOM     12  O6  UNL     1      20.650  36.230  37.582  0.00  0.00    +0.000 OA
BRANCH  12  13
ATOM     13  C12 UNL     1      19.712  36.591  38.591  0.00  0.00    +0.000 C 
BRANCH  13  14
ATOM     14  C13 UNL     1      19.685  38.086  38.735  0.00  0.00    +0.000 A 
ATOM     15  C14 UNL     1      19.490  38.686  39.993  0.00  0.00    +0.000 A 
ATOM     16  C15 UNL     1      19.486  40.078  40.112  0.00  0.00    +0.000 A 
ATOM     17  C16 UNL     1      19.682  40.879  38.982  0.00  0.00    +0.000 A 
ATOM     18  C17 UNL     1      19.879  40.290  37.730  0.00  0.00    +0.000 A 
ATOM     19  C18 UNL     1      19.881  38.898  37.606  0.00  0.00    +0.000 A 
ENDBRANCH  13  14
ENDBRANCH  12  13
ENDBRANCH   9  12
ENDBRANCH   1   8
BRANCH   1  20
ATOM     20  C9  UNL     1      21.188  31.672  38.159  0.00  0.00    +0.000 C 
ATOM     21  O4  UNL     1      21.805  30.723  37.605  0.00  0.00    +0.000 OA
BRANCH  20  22
ATOM     22  O3  UNL     1      21.334  31.922  39.530  0.00  0.00    +0.000 OA
BRANCH  22  32
ATOM     23  C1  UNL     1      26.168  35.673  42.005  0.00  0.00    +0.000 C 
ATOM     24  C2  UNL     1      25.893  34.192  41.966  0.00  0.00    +0.000 A 
ATOM     25  C3  UNL     1      26.820  33.309  42.531  0.00  0.00    +0.000 A 
ATOM     26  C4  UNL     1      26.571  31.936  42.494  0.00  0.00    +0.000 A 
ATOM     27  O1  UNL     1      27.397  31.133  43.004  0.00  0.00    +0.000 OA
ATOM     28  O2  UNL     1      25.468  31.467  41.925  0.00  0.00    +0.000 OA
ATOM     29  C5  UNL     1      24.549  32.254  41.367  0.00  0.00    +0.000 A 
ATOM     30  C6  UNL     1      23.401  31.682  40.780  0.00  0.00    +0.000 A 
ATOM     31  C7  UNL     1      23.227  30.184  40.754  0.00  0.00    +0.000 C 
ATOM     32  C8  UNL     1      22.451  32.511  40.147  0.00  0.00    +0.000 A 
ATOM     33  C25 UNL     1      22.620  33.906  40.180  0.00  0.00    +0.000 A 
ATOM     34  C26 UNL     1      23.744  34.473  40.777  0.00  0.00    +0.000 A 
ATOM     35  C27 UNL     1      24.728  33.660  41.366  0.00  0.00    +0.000 A 
ENDBRANCH  22  32
ENDBRANCH  20  22
ENDBRANCH   1  20
TORSDOF 8
ENDMDL
