MODEL 1
REMARK VINA RESULT:    -7.157      0.000      0.000
REMARK INTER + INTRA:         -11.024
REMARK INTER:                  -9.667
REMARK INTRA:                  -1.357
REMARK UNBOUND:                -1.357
REMARK  Name = CNP0008747_1.pdb
REMARK  9 active torsions:
REMARK  status: ('A' for Active; 'I' for Inactive)
REMARK    1  A    between atoms: C1_1  and  O1_2
REMARK    2  A    between atoms: O1_2  and  C2_3
REMARK    3  A    between atoms: C3_4  and  C4_5
REMARK    4  A    between atoms: C4_5  and  O2_6
REMARK    5  A    between atoms: C17_22  and  C18_23
REMARK    6  A    between atoms: C18_23  and  O6_24
REMARK    7  A    between atoms: C18_23  and  C19_25
REMARK    8  A    between atoms: C23_29  and  C24_30
REMARK    9  A    between atoms: C32_39  and  C33_40
REMARK                            x       y       z     vdW  Elec       q    Type
REMARK                         _______ _______ _______ _____ _____    ______ ____
ROOT
ATOM      1  C2  UNL     1      19.240  38.068  35.215  0.00  0.00    +0.000 C 
ATOM      2  C3  UNL     1      19.218  39.380  34.999  0.00  0.00    +0.000 C 
ATOM      3  C5  UNL     1      19.579  40.019  36.260  0.00  0.00    +0.000 C 
ATOM      4  O3  UNL     1      19.651  41.259  36.461  0.00  0.00    +0.000 OA
ATOM      5  O4  UNL     1      19.842  39.060  37.227  0.00  0.00    +0.000 OA
ATOM      6  C6  UNL     1      19.656  37.831  36.604  0.00  0.00    +0.000 C 
ATOM      7  C7  UNL     1      19.883  36.647  37.183  0.00  0.00    +0.000 C 
ATOM      8  O5  UNL     1      19.824  35.457  36.483  0.00  0.00    +0.000 OA
ATOM      9  C8  UNL     1      20.262  34.438  37.300  0.00  0.00    +0.000 C 
ATOM     10  C9  UNL     1      20.689  33.271  36.791  0.00  0.00    +0.000 C 
ATOM     11  C10 UNL     1      21.611  32.336  37.542  0.00  0.00    +0.000 C 
ATOM     12  C11 UNL     1      21.023  31.915  38.851  0.00  0.00    +0.000 C 
ATOM     13  C12 UNL     1      21.055  32.798  39.849  0.00  0.00    +0.000 C 
ATOM     14  C13 UNL     1      21.500  34.235  39.553  0.00  0.00    +0.000 C 
ATOM     15  C14 UNL     1      21.718  34.934  40.927  0.00  0.00    +0.000 C 
ATOM     16  C15 UNL     1      22.944  34.358  41.659  0.00  0.00    +0.000 C 
ATOM     17  C16 UNL     1      24.153  34.123  40.728  0.00  0.00    +0.000 C 
ATOM     18  C17 UNL     1      23.959  34.805  39.357  0.00  0.00    +0.000 C 
ATOM     19  N1  UNL     1      22.737  34.269  38.689  0.00  0.00    +0.000 NA
ATOM     20  C30 UNL     1      22.944  33.050  37.852  0.00  0.00    +0.000 C 
ATOM     21  C31 UNL     1      20.326  34.887  38.747  0.00  0.00    +0.000 C 
ATOM     22  C32 UNL     1      20.332  36.438  38.608  0.00  0.00    +0.000 C 
ATOM     23  C33 UNL     1      19.378  37.108  39.612  0.00  0.00    +0.000 C 
ENDROOT
BRANCH   1  25
ATOM     24  C1  UNL     1      17.575  36.654  34.093  0.00  0.00    +0.000 C 
ATOM     25  O1  UNL     1      18.914  37.099  34.267  0.00  0.00    +0.000 OA
ENDBRANCH   1  25
BRANCH   2  26
ATOM     26  C4  UNL     1      18.815  40.073  33.730  0.00  0.00    +0.000 C 
BRANCH  26  27
ATOM     27  O2  UNL     1      17.963  41.151  34.010  0.00  0.00    +0.000 OA
ATOM     28  H6  UNL     1      17.329  40.837  34.705  0.00  0.00    +0.000 HD
ENDBRANCH  26  27
ENDBRANCH   2  26
BRANCH  18  29
ATOM     29  C18 UNL     1      25.234  34.764  38.448  0.00  0.00    +0.000 C 
BRANCH  29  30
ATOM     30  C19 UNL     1      26.592  34.935  39.198  0.00  0.00    +0.000 C 
ATOM     31  C20 UNL     1      27.713  34.308  38.389  0.00  0.00    +0.000 C 
ATOM     32  C21 UNL     1      28.958  34.808  38.349  0.00  0.00    +0.000 C 
ATOM     33  C22 UNL     1      29.316  36.137  38.956  0.00  0.00    +0.000 C 
ATOM     34  C23 UNL     1      28.355  36.543  40.093  0.00  0.00    +0.000 C 
ATOM     35  C29 UNL     1      26.905  36.400  39.588  0.00  0.00    +0.000 C 
BRANCH  34  36
ATOM     36  C24 UNL     1      28.647  37.992  40.576  0.00  0.00    +0.000 C 
ATOM     37  C25 UNL     1      29.492  38.799  39.586  0.00  0.00    +0.000 C 
ATOM     38  C26 UNL     1      30.321  39.780  40.413  0.00  0.00    +0.000 C 
ATOM     39  C27 UNL     1      30.123  39.406  41.878  0.00  0.00    +0.000 C 
ATOM     40  C28 UNL     1      29.440  38.048  41.880  0.00  0.00    +0.000 C 
ENDBRANCH  34  36
ENDBRANCH  29  30
BRANCH  29  41
ATOM     41  O6  UNL     1      25.132  35.710  37.409  0.00  0.00    +0.000 OA
ATOM     42  H19 UNL     1      25.572  35.332  36.604  0.00  0.00    +0.000 HD
ENDBRANCH  29  41
ENDBRANCH  18  29
TORSDOF 7
ENDMDL
MODEL 2
REMARK VINA RESULT:    -7.011      2.729      9.288
REMARK INTER + INTRA:         -10.827
REMARK INTER:                  -9.458
REMARK INTRA:                  -1.369
REMARK UNBOUND:                -1.357
REMARK  Name = CNP0008747_1.pdb
REMARK  9 active torsions:
REMARK  status: ('A' for Active; 'I' for Inactive)
REMARK    1  A    between atoms: C1_1  and  O1_2
REMARK    2  A    between atoms: O1_2  and  C2_3
REMARK    3  A    between atoms: C3_4  and  C4_5
REMARK    4  A    between atoms: C4_5  and  O2_6
REMARK    5  A    between atoms: C17_22  and  C18_23
REMARK    6  A    between atoms: C18_23  and  O6_24
REMARK    7  A    between atoms: C18_23  and  C19_25
REMARK    8  A    between atoms: C23_29  and  C24_30
REMARK    9  A    between atoms: C32_39  and  C33_40
REMARK                            x       y       z     vdW  Elec       q    Type
REMARK                         _______ _______ _______ _____ _____    ______ ____
ROOT
ATOM      1  C2  UNL     1      30.032  38.242  37.876  0.00  0.00    +0.000 C 
ATOM      2  C3  UNL     1      30.474  39.001  36.878  0.00  0.00    +0.000 C 
ATOM      3  C5  UNL     1      29.992  38.392  35.643  0.00  0.00    +0.000 C 
ATOM      4  O3  UNL     1      30.219  38.813  34.479  0.00  0.00    +0.000 OA
ATOM      5  O4  UNL     1      29.232  37.266  35.926  0.00  0.00    +0.000 OA
ATOM      6  C6  UNL     1      29.223  37.153  37.312  0.00  0.00    +0.000 C 
ATOM      7  C7  UNL     1      28.534  36.230  37.991  0.00  0.00    +0.000 C 
ATOM      8  O5  UNL     1      28.437  36.243  39.369  0.00  0.00    +0.000 OA
ATOM      9  C8  UNL     1      27.537  35.277  39.761  0.00  0.00    +0.000 C 
ATOM     10  C9  UNL     1      26.948  35.321  40.967  0.00  0.00    +0.000 C 
ATOM     11  C10 UNL     1      25.641  34.623  41.269  0.00  0.00    +0.000 C 
ATOM     12  C11 UNL     1      25.729  33.152  41.013  0.00  0.00    +0.000 C 
ATOM     13  C12 UNL     1      25.689  32.747  39.744  0.00  0.00    +0.000 C 
ATOM     14  C13 UNL     1      25.754  33.798  38.629  0.00  0.00    +0.000 C 
ATOM     15  C14 UNL     1      25.393  33.072  37.300  0.00  0.00    +0.000 C 
ATOM     16  C15 UNL     1      23.909  32.660  37.273  0.00  0.00    +0.000 C 
ATOM     17  C16 UNL     1      22.965  33.753  37.820  0.00  0.00    +0.000 C 
ATOM     18  C17 UNL     1      23.689  35.107  37.973  0.00  0.00    +0.000 C 
ATOM     19  N1  UNL     1      24.842  34.967  38.910  0.00  0.00    +0.000 NA
ATOM     20  C30 UNL     1      24.527  35.175  40.355  0.00  0.00    +0.000 C 
ATOM     21  C31 UNL     1      27.229  34.322  38.624  0.00  0.00    +0.000 C 
ATOM     22  C32 UNL     1      27.692  35.137  37.380  0.00  0.00    +0.000 C 
ATOM     23  C33 UNL     1      28.503  34.274  36.397  0.00  0.00    +0.000 C 
ENDROOT
BRANCH   1  25
ATOM     24  C1  UNL     1      29.676  39.508  39.950  0.00  0.00    +0.000 C 
ATOM     25  O1  UNL     1      30.308  38.460  39.226  0.00  0.00    +0.000 OA
ENDBRANCH   1  25
BRANCH   2  26
ATOM     26  C4  UNL     1      31.367  40.202  36.993  0.00  0.00    +0.000 C 
BRANCH  26  27
ATOM     27  O2  UNL     1      32.515  39.888  37.734  0.00  0.00    +0.000 OA
ATOM     28  H6  UNL     1      32.831  40.737  38.139  0.00  0.00    +0.000 HD
ENDBRANCH  26  27
ENDBRANCH   2  26
BRANCH  18  29
ATOM     29  C18 UNL     1      22.732  36.294  38.338  0.00  0.00    +0.000 C 
BRANCH  29  30
ATOM     30  C19 UNL     1      21.232  36.078  37.963  0.00  0.00    +0.000 C 
ATOM     31  C20 UNL     1      20.342  36.548  39.099  0.00  0.00    +0.000 C 
ATOM     32  C21 UNL     1      19.144  37.121  38.904  0.00  0.00    +0.000 C 
ATOM     33  C22 UNL     1      18.649  37.518  37.540  0.00  0.00    +0.000 C 
ATOM     34  C23 UNL     1      19.305  36.693  36.413  0.00  0.00    +0.000 C 
ATOM     35  C29 UNL     1      20.834  36.716  36.609  0.00  0.00    +0.000 C 
BRANCH  34  36
ATOM     36  C24 UNL     1      18.904  37.244  35.015  0.00  0.00    +0.000 C 
ATOM     37  C25 UNL     1      18.944  38.773  34.937  0.00  0.00    +0.000 C 
ATOM     38  C26 UNL     1      17.869  39.189  33.933  0.00  0.00    +0.000 C 
ATOM     39  C27 UNL     1      17.071  37.937  33.590  0.00  0.00    +0.000 C 
ATOM     40  C28 UNL     1      17.477  36.884  34.607  0.00  0.00    +0.000 C 
ENDBRANCH  34  36
ENDBRANCH  29  30
BRANCH  29  41
ATOM     41  O6  UNL     1      23.203  37.498  37.781  0.00  0.00    +0.000 OA
ATOM     42  H19 UNL     1      22.526  37.823  37.132  0.00  0.00    +0.000 HD
ENDBRANCH  29  41
ENDBRANCH  18  29
TORSDOF 7
ENDMDL
MODEL 3
REMARK VINA RESULT:    -6.566      5.555      9.787
REMARK INTER + INTRA:         -10.226
REMARK INTER:                  -9.262
REMARK INTRA:                  -0.964
REMARK UNBOUND:                -1.357
REMARK  Name = CNP0008747_1.pdb
REMARK  9 active torsions:
REMARK  status: ('A' for Active; 'I' for Inactive)
REMARK    1  A    between atoms: C1_1  and  O1_2
REMARK    2  A    between atoms: O1_2  and  C2_3
REMARK    3  A    between atoms: C3_4  and  C4_5
REMARK    4  A    between atoms: C4_5  and  O2_6
REMARK    5  A    between atoms: C17_22  and  C18_23
REMARK    6  A    between atoms: C18_23  and  O6_24
REMARK    7  A    between atoms: C18_23  and  C19_25
REMARK    8  A    between atoms: C23_29  and  C24_30
REMARK    9  A    between atoms: C32_39  and  C33_40
REMARK                            x       y       z     vdW  Elec       q    Type
REMARK                         _______ _______ _______ _____ _____    ______ ____
ROOT
ATOM      1  C2  UNL     1      13.700  43.092  31.649  0.00  0.00    +0.000 C 
ATOM      2  C3  UNL     1      12.468  42.719  31.983  0.00  0.00    +0.000 C 
ATOM      3  C5  UNL     1      12.503  41.273  32.170  0.00  0.00    +0.000 C 
ATOM      4  O3  UNL     1      11.522  40.548  32.476  0.00  0.00    +0.000 OA
ATOM      5  O4  UNL     1      13.788  40.792  31.965  0.00  0.00    +0.000 OA
ATOM      6  C6  UNL     1      14.564  41.904  31.655  0.00  0.00    +0.000 C 
ATOM      7  C7  UNL     1      15.887  41.872  31.457  0.00  0.00    +0.000 C 
ATOM      8  O5  UNL     1      16.639  43.020  31.294  0.00  0.00    +0.000 OA
ATOM      9  C8  UNL     1      17.973  42.678  31.277  0.00  0.00    +0.000 C 
ATOM     10  C9  UNL     1      18.929  43.587  31.531  0.00  0.00    +0.000 C 
ATOM     11  C10 UNL     1      20.314  43.210  32.007  0.00  0.00    +0.000 C 
ATOM     12  C11 UNL     1      20.997  42.294  31.043  0.00  0.00    +0.000 C 
ATOM     13  C12 UNL     1      20.618  41.016  31.038  0.00  0.00    +0.000 C 
ATOM     14  C13 UNL     1      19.391  40.605  31.860  0.00  0.00    +0.000 C 
ATOM     15  C14 UNL     1      19.372  39.049  31.899  0.00  0.00    +0.000 C 
ATOM     16  C15 UNL     1      20.533  38.496  32.748  0.00  0.00    +0.000 C 
ATOM     17  C16 UNL     1      20.757  39.285  34.056  0.00  0.00    +0.000 C 
ATOM     18  C17 UNL     1      19.581  40.237  34.358  0.00  0.00    +0.000 C 
ATOM     19  N1  UNL     1      19.416  41.213  33.241  0.00  0.00    +0.000 NA
ATOM     20  C30 UNL     1      20.223  42.464  33.354  0.00  0.00    +0.000 C 
ATOM     21  C31 UNL     1      18.153  41.183  31.096  0.00  0.00    +0.000 C 
ATOM     22  C32 UNL     1      16.750  40.636  31.493  0.00  0.00    +0.000 C 
ATOM     23  C33 UNL     1      16.253  39.563  30.508  0.00  0.00    +0.000 C 
ENDROOT
BRANCH   1  25
ATOM     24  C1  UNL     1      14.005  44.902  30.016  0.00  0.00    +0.000 C 
ATOM     25  O1  UNL     1      14.083  44.398  31.344  0.00  0.00    +0.000 OA
ENDBRANCH   1  25
BRANCH   2  26
ATOM     26  C4  UNL     1      11.257  43.602  32.065  0.00  0.00    +0.000 C 
BRANCH  26  27
ATOM     27  O2  UNL     1      10.153  42.875  32.534  0.00  0.00    +0.000 OA
ATOM     28  H6  UNL     1       9.379  43.496  32.519  0.00  0.00    +0.000 HD
ENDBRANCH  26  27
ENDBRANCH   2  26
BRANCH  18  29
ATOM     29  C18 UNL     1      19.665  40.915  35.768  0.00  0.00    +0.000 C 
BRANCH  29  30
ATOM     30  C19 UNL     1      20.266  40.023  36.900  0.00  0.00    +0.000 C 
ATOM     31  C20 UNL     1      20.076  40.697  38.246  0.00  0.00    +0.000 C 
ATOM     32  C21 UNL     1      19.840  40.018  39.380  0.00  0.00    +0.000 C 
ATOM     33  C22 UNL     1      19.561  38.540  39.396  0.00  0.00    +0.000 C 
ATOM     34  C23 UNL     1      20.157  37.816  38.170  0.00  0.00    +0.000 C 
ATOM     35  C29 UNL     1      19.729  38.570  36.895  0.00  0.00    +0.000 C 
BRANCH  34  36
ATOM     36  C24 UNL     1      19.703  36.329  38.128  0.00  0.00    +0.000 C 
ATOM     37  C25 UNL     1      20.066  35.552  39.397  0.00  0.00    +0.000 C 
ATOM     38  C26 UNL     1      20.305  34.104  38.972  0.00  0.00    +0.000 C 
ATOM     39  C27 UNL     1      20.291  34.078  37.448  0.00  0.00    +0.000 C 
ATOM     40  C28 UNL     1      20.351  35.529  36.999  0.00  0.00    +0.000 C 
ENDBRANCH  34  36
ENDBRANCH  29  30
BRANCH  29  41
ATOM     41  O6  UNL     1      18.405  41.407  36.157  0.00  0.00    +0.000 OA
ATOM     42  H19 UNL     1      17.944  40.698  36.677  0.00  0.00    +0.000 HD
ENDBRANCH  29  41
ENDBRANCH  18  29
TORSDOF 7
ENDMDL
MODEL 4
REMARK VINA RESULT:    -6.477      2.148      9.213
REMARK INTER + INTRA:         -10.105
REMARK INTER:                  -9.994
REMARK INTRA:                  -0.111
REMARK UNBOUND:                -1.357
REMARK  Name = CNP0008747_1.pdb
REMARK  9 active torsions:
REMARK  status: ('A' for Active; 'I' for Inactive)
REMARK    1  A    between atoms: C1_1  and  O1_2
REMARK    2  A    between atoms: O1_2  and  C2_3
REMARK    3  A    between atoms: C3_4  and  C4_5
REMARK    4  A    between atoms: C4_5  and  O2_6
REMARK    5  A    between atoms: C17_22  and  C18_23
REMARK    6  A    between atoms: C18_23  and  O6_24
REMARK    7  A    between atoms: C18_23  and  C19_25
REMARK    8  A    between atoms: C23_29  and  C24_30
REMARK    9  A    between atoms: C32_39  and  C33_40
REMARK                            x       y       z     vdW  Elec       q    Type
REMARK                         _______ _______ _______ _____ _____    ______ ____
ROOT
ATOM      1  C2  UNL     1      27.054  36.001  40.756  0.00  0.00    +0.000 C 
ATOM      2  C3  UNL     1      28.175  36.649  40.457  0.00  0.00    +0.000 C 
ATOM      3  C5  UNL     1      28.204  36.788  39.005  0.00  0.00    +0.000 C 
ATOM      4  O3  UNL     1      29.120  37.334  38.337  0.00  0.00    +0.000 OA
ATOM      5  O4  UNL     1      27.063  36.231  38.445  0.00  0.00    +0.000 OA
ATOM      6  C6  UNL     1      26.315  35.745  39.513  0.00  0.00    +0.000 C 
ATOM      7  C7  UNL     1      25.102  35.195  39.397  0.00  0.00    +0.000 C 
ATOM      8  O5  UNL     1      24.334  34.858  40.496  0.00  0.00    +0.000 OA
ATOM      9  C8  UNL     1      23.085  34.471  40.063  0.00  0.00    +0.000 C 
ATOM     10  C9  UNL     1      22.028  34.475  40.892  0.00  0.00    +0.000 C 
ATOM     11  C10 UNL     1      20.600  34.547  40.401  0.00  0.00    +0.000 C 
ATOM     12  C11 UNL     1      20.276  33.414  39.480  0.00  0.00    +0.000 C 
ATOM     13  C12 UNL     1      20.741  33.484  38.234  0.00  0.00    +0.000 C 
ATOM     14  C13 UNL     1      21.729  34.601  37.874  0.00  0.00    +0.000 C 
ATOM     15  C14 UNL     1      21.858  34.610  36.323  0.00  0.00    +0.000 C 
ATOM     16  C15 UNL     1      20.559  35.098  35.656  0.00  0.00    +0.000 C 
ATOM     17  C16 UNL     1      19.929  36.313  36.371  0.00  0.00    +0.000 C 
ATOM     18  C17 UNL     1      20.902  36.944  37.390  0.00  0.00    +0.000 C 
ATOM     19  N1  UNL     1      21.285  35.935  38.421  0.00  0.00    +0.000 NA
ATOM     20  C30 UNL     1      20.382  35.852  39.607  0.00  0.00    +0.000 C 
ATOM     21  C31 UNL     1      23.078  34.215  38.569  0.00  0.00    +0.000 C 
ATOM     22  C32 UNL     1      24.360  34.967  38.103  0.00  0.00    +0.000 C 
ATOM     23  C33 UNL     1      25.188  34.132  37.111  0.00  0.00    +0.000 C 
ENDROOT
BRANCH   1  25
ATOM     24  C1  UNL     1      27.043  34.378  42.600  0.00  0.00    +0.000 C 
ATOM     25  O1  UNL     1      26.666  35.632  42.045  0.00  0.00    +0.000 OA
ENDBRANCH   1  25
BRANCH   2  26
ATOM     26  C4  UNL     1      29.246  37.078  41.417  0.00  0.00    +0.000 C 
BRANCH  26  27
ATOM     27  O2  UNL     1      30.146  37.951  40.789  0.00  0.00    +0.000 OA
ATOM     28  H6  UNL     1      29.870  38.005  39.837  0.00  0.00    +0.000 HD
ENDBRANCH  26  27
ENDBRANCH   2  26
BRANCH  18  29
ATOM     29  C18 UNL     1      20.387  38.292  38.000  0.00  0.00    +0.000 C 
BRANCH  29  30
ATOM     30  C19 UNL     1      19.628  39.225  37.005  0.00  0.00    +0.000 C 
ATOM     31  C20 UNL     1      20.516  40.390  36.607  0.00  0.00    +0.000 C 
ATOM     32  C21 UNL     1      20.497  40.942  35.383  0.00  0.00    +0.000 C 
ATOM     33  C22 UNL     1      19.726  40.346  34.237  0.00  0.00    +0.000 C 
ATOM     34  C23 UNL     1      18.541  39.479  34.713  0.00  0.00    +0.000 C 
ATOM     35  C29 UNL     1      19.053  38.483  35.773  0.00  0.00    +0.000 C 
BRANCH  34  36
ATOM     36  C24 UNL     1      17.877  38.741  33.516  0.00  0.00    +0.000 C 
ATOM     37  C25 UNL     1      16.751  39.547  32.862  0.00  0.00    +0.000 C 
ATOM     38  C26 UNL     1      15.742  38.535  32.323  0.00  0.00    +0.000 C 
ATOM     39  C27 UNL     1      16.164  37.165  32.843  0.00  0.00    +0.000 C 
ATOM     40  C28 UNL     1      17.214  37.422  33.910  0.00  0.00    +0.000 C 
ENDBRANCH  34  36
ENDBRANCH  29  30
BRANCH  29  41
ATOM     41  O6  UNL     1      21.444  38.994  38.612  0.00  0.00    +0.000 OA
ATOM     42  H19 UNL     1      21.052  39.716  39.168  0.00  0.00    +0.000 HD
ENDBRANCH  29  41
ENDBRANCH  18  29
TORSDOF 7
ENDMDL
MODEL 5
REMARK VINA RESULT:    -6.475      3.231      4.217
REMARK INTER + INTRA:         -10.103
REMARK INTER:                  -8.583
REMARK INTRA:                  -1.520
REMARK UNBOUND:                -1.357
REMARK  Name = CNP0008747_1.pdb
REMARK  9 active torsions:
REMARK  status: ('A' for Active; 'I' for Inactive)
REMARK    1  A    between atoms: C1_1  and  O1_2
REMARK    2  A    between atoms: O1_2  and  C2_3
REMARK    3  A    between atoms: C3_4  and  C4_5
REMARK    4  A    between atoms: C4_5  and  O2_6
REMARK    5  A    between atoms: C17_22  and  C18_23
REMARK    6  A    between atoms: C18_23  and  O6_24
REMARK    7  A    between atoms: C18_23  and  C19_25
REMARK    8  A    between atoms: C23_29  and  C24_30
REMARK    9  A    between atoms: C32_39  and  C33_40
REMARK                            x       y       z     vdW  Elec       q    Type
REMARK                         _______ _______ _______ _____ _____    ______ ____
ROOT
ATOM      1  C2  UNL     1      20.826  38.054  37.961  0.00  0.00    +0.000 C 
ATOM      2  C3  UNL     1      20.134  38.995  38.596  0.00  0.00    +0.000 C 
ATOM      3  C5  UNL     1      19.708  38.418  39.866  0.00  0.00    +0.000 C 
ATOM      4  O3  UNL     1      19.013  38.997  40.741  0.00  0.00    +0.000 OA
ATOM      5  O4  UNL     1      20.183  37.120  39.988  0.00  0.00    +0.000 OA
ATOM      6  C6  UNL     1      20.899  36.867  38.823  0.00  0.00    +0.000 C 
ATOM      7  C7  UNL     1      21.580  35.741  38.583  0.00  0.00    +0.000 C 
ATOM      8  O5  UNL     1      22.395  35.590  37.477  0.00  0.00    +0.000 OA
ATOM      9  C8  UNL     1      23.082  34.401  37.590  0.00  0.00    +0.000 C 
ATOM     10  C9  UNL     1      24.210  34.179  36.896  0.00  0.00    +0.000 C 
ATOM     11  C10 UNL     1      25.246  33.161  37.318  0.00  0.00    +0.000 C 
ATOM     12  C11 UNL     1      24.660  31.789  37.418  0.00  0.00    +0.000 C 
ATOM     13  C12 UNL     1      23.914  31.517  38.488  0.00  0.00    +0.000 C 
ATOM     14  C13 UNL     1      23.537  32.661  39.438  0.00  0.00    +0.000 C 
ATOM     15  C14 UNL     1      22.935  32.009  40.716  0.00  0.00    +0.000 C 
ATOM     16  C15 UNL     1      24.011  31.258  41.522  0.00  0.00    +0.000 C 
ATOM     17  C16 UNL     1      25.344  32.031  41.621  0.00  0.00    +0.000 C 
ATOM     18  C17 UNL     1      25.190  33.497  41.163  0.00  0.00    +0.000 C 
ATOM     19  N1  UNL     1      24.723  33.542  39.747  0.00  0.00    +0.000 NA
ATOM     20  C30 UNL     1      25.800  33.520  38.713  0.00  0.00    +0.000 C 
ATOM     21  C31 UNL     1      22.479  33.522  38.669  0.00  0.00    +0.000 C 
ATOM     22  C32 UNL     1      21.653  34.547  39.501  0.00  0.00    +0.000 C 
ATOM     23  C33 UNL     1      20.254  34.008  39.849  0.00  0.00    +0.000 C 
ENDROOT
BRANCH   1  25
ATOM     24  C1  UNL     1      20.654  37.821  35.522  0.00  0.00    +0.000 C 
ATOM     25  O1  UNL     1      21.379  38.194  36.688  0.00  0.00    +0.000 OA
ENDBRANCH   1  25
BRANCH   2  26
ATOM     26  C4  UNL     1      19.782  40.357  38.072  0.00  0.00    +0.000 C 
BRANCH  26  27
ATOM     27  O2  UNL     1      20.813  40.849  37.257  0.00  0.00    +0.000 OA
ATOM     28  H6  UNL     1      21.414  41.373  37.848  0.00  0.00    +0.000 HD
ENDBRANCH  26  27
ENDBRANCH   2  26
BRANCH  18  29
ATOM     29  C18 UNL     1      26.461  34.375  41.427  0.00  0.00    +0.000 C 
BRANCH  29  30
ATOM     30  C19 UNL     1      27.723  33.592  41.906  0.00  0.00    +0.000 C 
ATOM     31  C20 UNL     1      28.905  33.919  41.012  0.00  0.00    +0.000 C 
ATOM     32  C21 UNL     1      30.167  33.999  41.463  0.00  0.00    +0.000 C 
ATOM     33  C22 UNL     1      30.508  33.951  42.928  0.00  0.00    +0.000 C 
ATOM     34  C23 UNL     1      29.434  33.217  43.758  0.00  0.00    +0.000 C 
ATOM     35  C29 UNL     1      28.051  33.801  43.405  0.00  0.00    +0.000 C 
BRANCH  34  36
ATOM     36  C24 UNL     1      29.729  33.338  45.280  0.00  0.00    +0.000 C 
ATOM     37  C25 UNL     1      28.461  33.433  46.133  0.00  0.00    +0.000 C 
ATOM     38  C26 UNL     1      28.815  34.284  47.352  0.00  0.00    +0.000 C 
ATOM     39  C27 UNL     1      30.208  34.854  47.109  0.00  0.00    +0.000 C 
ATOM     40  C28 UNL     1      30.523  34.590  45.646  0.00  0.00    +0.000 C 
ENDBRANCH  34  36
ENDBRANCH  29  30
BRANCH  29  41
ATOM     41  O6  UNL     1      26.164  35.415  42.330  0.00  0.00    +0.000 OA
ATOM     42  H19 UNL     1      26.797  36.160  42.159  0.00  0.00    +0.000 HD
ENDBRANCH  29  41
ENDBRANCH  18  29
TORSDOF 7
ENDMDL
MODEL 6
REMARK VINA RESULT:    -6.419      7.079     12.557
REMARK INTER + INTRA:         -10.027
REMARK INTER:                  -8.643
REMARK INTRA:                  -1.385
REMARK UNBOUND:                -1.357
REMARK  Name = CNP0008747_1.pdb
REMARK  9 active torsions:
REMARK  status: ('A' for Active; 'I' for Inactive)
REMARK    1  A    between atoms: C1_1  and  O1_2
REMARK    2  A    between atoms: O1_2  and  C2_3
REMARK    3  A    between atoms: C3_4  and  C4_5
REMARK    4  A    between atoms: C4_5  and  O2_6
REMARK    5  A    between atoms: C17_22  and  C18_23
REMARK    6  A    between atoms: C18_23  and  O6_24
REMARK    7  A    between atoms: C18_23  and  C19_25
REMARK    8  A    between atoms: C23_29  and  C24_30
REMARK    9  A    between atoms: C32_39  and  C33_40
REMARK                            x       y       z     vdW  Elec       q    Type
REMARK                         _______ _______ _______ _____ _____    ______ ____
ROOT
ATOM      1  C2  UNL     1      11.374  47.172  34.610  0.00  0.00    +0.000 C 
ATOM      2  C3  UNL     1      10.642  47.176  35.721  0.00  0.00    +0.000 C 
ATOM      3  C5  UNL     1      10.261  45.792  35.978  0.00  0.00    +0.000 C 
ATOM      4  O3  UNL     1       9.548  45.392  36.934  0.00  0.00    +0.000 OA
ATOM      5  O4  UNL     1      10.801  44.957  35.011  0.00  0.00    +0.000 OA
ATOM      6  C6  UNL     1      11.516  45.784  34.151  0.00  0.00    +0.000 C 
ATOM      7  C7  UNL     1      12.249  45.350  33.120  0.00  0.00    +0.000 C 
ATOM      8  O5  UNL     1      13.059  46.192  32.381  0.00  0.00    +0.000 OA
ATOM      9  C8  UNL     1      13.805  45.435  31.505  0.00  0.00    +0.000 C 
ATOM     10  C9  UNL     1      14.935  45.913  30.959  0.00  0.00    +0.000 C 
ATOM     11  C10 UNL     1      16.025  45.019  30.413  0.00  0.00    +0.000 C 
ATOM     12  C11 UNL     1      15.511  44.116  29.337  0.00  0.00    +0.000 C 
ATOM     13  C12 UNL     1      14.791  43.060  29.715  0.00  0.00    +0.000 C 
ATOM     14  C13 UNL     1      14.369  42.939  31.184  0.00  0.00    +0.000 C 
ATOM     15  C14 UNL     1      13.815  41.498  31.380  0.00  0.00    +0.000 C 
ATOM     16  C15 UNL     1      14.937  40.449  31.277  0.00  0.00    +0.000 C 
ATOM     17  C16 UNL     1      16.231  40.869  32.008  0.00  0.00    +0.000 C 
ATOM     18  C17 UNL     1      15.998  42.088  32.925  0.00  0.00    +0.000 C 
ATOM     19  N1  UNL     1      15.512  43.247  32.120  0.00  0.00    +0.000 NA
ATOM     20  C30 UNL     1      16.577  44.116  31.536  0.00  0.00    +0.000 C 
ATOM     21  C31 UNL     1      13.260  44.024  31.399  0.00  0.00    +0.000 C 
ATOM     22  C32 UNL     1      12.393  43.912  32.688  0.00  0.00    +0.000 C 
ATOM     23  C33 UNL     1      11.027  43.261  32.407  0.00  0.00    +0.000 C 
ENDROOT
BRANCH   1  25
ATOM     24  C1  UNL     1      11.169  49.033  33.021  0.00  0.00    +0.000 C 
ATOM     25  O1  UNL     1      11.903  48.309  34.000  0.00  0.00    +0.000 OA
ENDBRANCH   1  25
BRANCH   2  26
ATOM     26  C4  UNL     1      10.217  48.381  36.509  0.00  0.00    +0.000 C 
BRANCH  26  27
ATOM     27  O2  UNL     1      10.124  48.066  37.872  0.00  0.00    +0.000 OA
ATOM     28  H6  UNL     1       9.416  48.652  38.249  0.00  0.00    +0.000 HD
ENDBRANCH  26  27
ENDBRANCH   2  26
BRANCH  18  29
ATOM     29  C18 UNL     1      17.225  42.433  33.835  0.00  0.00    +0.000 C 
BRANCH  29  30
ATOM     30  C19 UNL     1      18.334  41.336  33.902  0.00  0.00    +0.000 C 
ATOM     31  C20 UNL     1      19.536  41.763  33.080  0.00  0.00    +0.000 C 
ATOM     32  C21 UNL     1      20.800  41.470  33.421  0.00  0.00    +0.000 C 
ATOM     33  C22 UNL     1      21.159  40.848  34.743  0.00  0.00    +0.000 C 
ATOM     34  C23 UNL     1      19.988  40.051  35.355  0.00  0.00    +0.000 C 
ATOM     35  C29 UNL     1      18.728  40.940  35.347  0.00  0.00    +0.000 C 
BRANCH  34  36
ATOM     36  C24 UNL     1      20.334  39.571  36.793  0.00  0.00    +0.000 C 
ATOM     37  C25 UNL     1      19.610  38.280  37.187  0.00  0.00    +0.000 C 
ATOM     38  C26 UNL     1      19.386  38.346  38.698  0.00  0.00    +0.000 C 
ATOM     39  C27 UNL     1      19.782  39.749  39.146  0.00  0.00    +0.000 C 
ATOM     40  C28 UNL     1      19.937  40.571  37.878  0.00  0.00    +0.000 C 
ENDBRANCH  34  36
ENDBRANCH  29  30
BRANCH  29  41
ATOM     41  O6  UNL     1      16.799  42.771  35.134  0.00  0.00    +0.000 OA
ATOM     42  H19 UNL     1      16.121  43.492  35.058  0.00  0.00    +0.000 HD
ENDBRANCH  29  41
ENDBRANCH  18  29
TORSDOF 7
ENDMDL
MODEL 7
REMARK VINA RESULT:    -6.261     15.949     20.392
REMARK INTER + INTRA:          -9.814
REMARK INTER:                  -8.779
REMARK INTRA:                  -1.035
REMARK UNBOUND:                -1.357
REMARK  Name = CNP0008747_1.pdb
REMARK  9 active torsions:
REMARK  status: ('A' for Active; 'I' for Inactive)
REMARK    1  A    between atoms: C1_1  and  O1_2
REMARK    2  A    between atoms: O1_2  and  C2_3
REMARK    3  A    between atoms: C3_4  and  C4_5
REMARK    4  A    between atoms: C4_5  and  O2_6
REMARK    5  A    between atoms: C17_22  and  C18_23
REMARK    6  A    between atoms: C18_23  and  O6_24
REMARK    7  A    between atoms: C18_23  and  C19_25
REMARK    8  A    between atoms: C23_29  and  C24_30
REMARK    9  A    between atoms: C32_39  and  C33_40
REMARK                            x       y       z     vdW  Elec       q    Type
REMARK                         _______ _______ _______ _____ _____    ______ ____
ROOT
ATOM      1  C2  UNL     1      13.503  51.089  47.780  0.00  0.00    +0.000 C 
ATOM      2  C3  UNL     1      14.420  50.450  48.499  0.00  0.00    +0.000 C 
ATOM      3  C5  UNL     1      13.896  49.114  48.757  0.00  0.00    +0.000 C 
ATOM      4  O3  UNL     1      14.470  48.215  49.424  0.00  0.00    +0.000 OA
ATOM      5  O4  UNL     1      12.656  48.959  48.154  0.00  0.00    +0.000 OA
ATOM      6  C6  UNL     1      12.388  50.168  47.521  0.00  0.00    +0.000 C 
ATOM      7  C7  UNL     1      11.312  50.402  46.762  0.00  0.00    +0.000 C 
ATOM      8  O5  UNL     1      11.159  51.568  46.035  0.00  0.00    +0.000 OA
ATOM      9  C8  UNL     1      10.045  51.448  45.233  0.00  0.00    +0.000 C 
ATOM     10  C9  UNL     1       9.876  52.229  44.154  0.00  0.00    +0.000 C 
ATOM     11  C10 UNL     1       8.984  51.845  42.995  0.00  0.00    +0.000 C 
ATOM     12  C11 UNL     1       7.575  51.609  43.438  0.00  0.00    +0.000 C 
ATOM     13  C12 UNL     1       7.313  50.460  44.060  0.00  0.00    +0.000 C 
ATOM     14  C13 UNL     1       8.481  49.550  44.458  0.00  0.00    +0.000 C 
ATOM     15  C14 UNL     1       7.868  48.184  44.884  0.00  0.00    +0.000 C 
ATOM     16  C15 UNL     1       7.271  47.438  43.676  0.00  0.00    +0.000 C 
ATOM     17  C16 UNL     1       8.163  47.509  42.417  0.00  0.00    +0.000 C 
ATOM     18  C17 UNL     1       9.574  48.038  42.747  0.00  0.00    +0.000 C 
ATOM     19  N1  UNL     1       9.482  49.405  43.338  0.00  0.00    +0.000 NA
ATOM     20  C30 UNL     1       9.484  50.532  42.358  0.00  0.00    +0.000 C 
ATOM     21  C31 UNL     1       9.191  50.267  45.655  0.00  0.00    +0.000 C 
ATOM     22  C32 UNL     1      10.194  49.425  46.498  0.00  0.00    +0.000 C 
ATOM     23  C33 UNL     1       9.560  48.917  47.805  0.00  0.00    +0.000 C 
ENDROOT
BRANCH   1  25
ATOM     24  C1  UNL     1      13.134  53.487  48.163  0.00  0.00    +0.000 C 
ATOM     25  O1  UNL     1      13.603  52.414  47.355  0.00  0.00    +0.000 OA
ENDBRANCH   1  25
BRANCH   2  26
ATOM     26  C4  UNL     1      15.707  51.020  49.021  0.00  0.00    +0.000 C 
BRANCH  26  27
ATOM     27  O2  UNL     1      16.551  51.374  47.958  0.00  0.00    +0.000 OA
ATOM     28  H6  UNL     1      16.406  50.700  47.245  0.00  0.00    +0.000 HD
ENDBRANCH  26  27
ENDBRANCH   2  26
BRANCH  18  29
ATOM     29  C18 UNL     1      10.577  47.946  41.546  0.00  0.00    +0.000 C 
BRANCH  29  30
ATOM     30  C19 UNL     1       9.918  47.902  40.131  0.00  0.00    +0.000 C 
ATOM     31  C20 UNL     1       9.988  49.273  39.484  0.00  0.00    +0.000 C 
ATOM     32  C21 UNL     1      10.157  49.454  38.165  0.00  0.00    +0.000 C 
ATOM     33  C22 UNL     1      10.475  48.322  37.226  0.00  0.00    +0.000 C 
ATOM     34  C23 UNL     1       9.993  46.958  37.765  0.00  0.00    +0.000 C 
ATOM     35  C29 UNL     1      10.494  46.795  39.214  0.00  0.00    +0.000 C 
BRANCH  34  36
ATOM     36  C24 UNL     1      10.490  45.796  36.859  0.00  0.00    +0.000 C 
ATOM     37  C25 UNL     1      11.885  46.041  36.276  0.00  0.00    +0.000 C 
ATOM     38  C26 UNL     1      11.922  45.340  34.918  0.00  0.00    +0.000 C 
ATOM     39  C27 UNL     1      10.502  44.874  34.618  0.00  0.00    +0.000 C 
ATOM     40  C28 UNL     1       9.606  45.562  35.635  0.00  0.00    +0.000 C 
ENDBRANCH  34  36
ENDBRANCH  29  30
BRANCH  29  41
ATOM     41  O6  UNL     1      11.446  46.851  41.710  0.00  0.00    +0.000 OA
ATOM     42  H19 UNL     1      11.490  46.634  42.678  0.00  0.00    +0.000 HD
ENDBRANCH  29  41
ENDBRANCH  18  29
TORSDOF 7
ENDMDL
MODEL 8
REMARK VINA RESULT:    -6.252     15.981     20.236
REMARK INTER + INTRA:          -9.801
REMARK INTER:                  -8.324
REMARK INTRA:                  -1.478
REMARK UNBOUND:                -1.357
REMARK  Name = CNP0008747_1.pdb
REMARK  9 active torsions:
REMARK  status: ('A' for Active; 'I' for Inactive)
REMARK    1  A    between atoms: C1_1  and  O1_2
REMARK    2  A    between atoms: O1_2  and  C2_3
REMARK    3  A    between atoms: C3_4  and  C4_5
REMARK    4  A    between atoms: C4_5  and  O2_6
REMARK    5  A    between atoms: C17_22  and  C18_23
REMARK    6  A    between atoms: C18_23  and  O6_24
REMARK    7  A    between atoms: C18_23  and  C19_25
REMARK    8  A    between atoms: C23_29  and  C24_30
REMARK    9  A    between atoms: C32_39  and  C33_40
REMARK                            x       y       z     vdW  Elec       q    Type
REMARK                         _______ _______ _______ _____ _____    ______ ____
ROOT
ATOM      1  C2  UNL     1      14.914  52.927  45.544  0.00  0.00    +0.000 C 
ATOM      2  C3  UNL     1      16.204  52.646  45.700  0.00  0.00    +0.000 C 
ATOM      3  C5  UNL     1      16.289  51.224  46.013  0.00  0.00    +0.000 C 
ATOM      4  O3  UNL     1      17.347  50.585  46.247  0.00  0.00    +0.000 OA
ATOM      5  O4  UNL     1      15.024  50.655  46.017  0.00  0.00    +0.000 OA
ATOM      6  C6  UNL     1      14.143  51.688  45.711  0.00  0.00    +0.000 C 
ATOM      7  C7  UNL     1      12.825  51.533  45.546  0.00  0.00    +0.000 C 
ATOM      8  O5  UNL     1      12.009  52.557  45.101  0.00  0.00    +0.000 OA
ATOM      9  C8  UNL     1      10.747  52.053  44.875  0.00  0.00    +0.000 C 
ATOM     10  C9  UNL     1       9.874  52.693  44.081  0.00  0.00    +0.000 C 
ATOM     11  C10 UNL     1       8.712  51.996  43.409  0.00  0.00    +0.000 C 
ATOM     12  C11 UNL     1       7.811  51.340  44.408  0.00  0.00    +0.000 C 
ATOM     13  C12 UNL     1       8.226  50.195  44.948  0.00  0.00    +0.000 C 
ATOM     14  C13 UNL     1       9.660  49.724  44.675  0.00  0.00    +0.000 C 
ATOM     15  C14 UNL     1       9.757  48.253  45.174  0.00  0.00    +0.000 C 
ATOM     16  C15 UNL     1       8.929  47.305  44.286  0.00  0.00    +0.000 C 
ATOM     17  C16 UNL     1       9.072  47.605  42.778  0.00  0.00    +0.000 C 
ATOM     18  C17 UNL     1      10.243  48.571  42.498  0.00  0.00    +0.000 C 
ATOM     19  N1  UNL     1      10.024  49.860  43.217  0.00  0.00    +0.000 NA
ATOM     20  C30 UNL     1       9.234  50.887  42.473  0.00  0.00    +0.000 C 
ATOM     21  C31 UNL     1      10.586  50.681  45.499  0.00  0.00    +0.000 C 
ATOM     22  C32 UNL     1      12.066  50.239  45.703  0.00  0.00    +0.000 C 
ATOM     23  C33 UNL     1      12.291  49.610  47.089  0.00  0.00    +0.000 C 
ENDROOT
BRANCH   1  25
ATOM     24  C1  UNL     1      14.041  55.088  46.319  0.00  0.00    +0.000 C 
ATOM     25  O1  UNL     1      14.401  54.196  45.272  0.00  0.00    +0.000 OA
ENDBRANCH   1  25
BRANCH   2  26
ATOM     26  C4  UNL     1      17.346  53.619  45.650  0.00  0.00    +0.000 C 
BRANCH  26  27
ATOM     27  O2  UNL     1      18.532  52.964  45.290  0.00  0.00    +0.000 OA
ATOM     28  H6  UNL     1      19.006  52.753  46.136  0.00  0.00    +0.000 HD
ENDBRANCH  26  27
ENDBRANCH   2  26
BRANCH  18  29
ATOM     29  C18 UNL     1      10.555  48.755  40.973  0.00  0.00    +0.000 C 
BRANCH  29  30
ATOM     30  C19 UNL     1       9.633  47.951  40.004  0.00  0.00    +0.000 C 
ATOM     31  C20 UNL     1       8.647  48.888  39.331  0.00  0.00    +0.000 C 
ATOM     32  C21 UNL     1       8.224  48.723  38.067  0.00  0.00    +0.000 C 
ATOM     33  C22 UNL     1       8.824  47.703  37.138  0.00  0.00    +0.000 C 
ATOM     34  C23 UNL     1       9.469  46.525  37.898  0.00  0.00    +0.000 C 
ATOM     35  C29 UNL     1      10.412  47.091  38.978  0.00  0.00    +0.000 C 
BRANCH  34  36
ATOM     36  C24 UNL     1      10.228  45.583  36.920  0.00  0.00    +0.000 C 
ATOM     37  C25 UNL     1      11.633  46.082  36.571  0.00  0.00    +0.000 C 
ATOM     38  C26 UNL     1      11.928  45.605  35.150  0.00  0.00    +0.000 C 
ATOM     39  C27 UNL     1      10.633  45.019  34.598  0.00  0.00    +0.000 C 
ATOM     40  C28 UNL     1       9.536  45.430  35.566  0.00  0.00    +0.000 C 
ENDBRANCH  34  36
ENDBRANCH  29  30
BRANCH  29  41
ATOM     41  O6  UNL     1      11.908  48.466  40.707  0.00  0.00    +0.000 OA
ATOM     42  H19 UNL     1      12.464  49.154  41.158  0.00  0.00    +0.000 HD
ENDBRANCH  29  41
ENDBRANCH  18  29
TORSDOF 7
ENDMDL
MODEL 9
REMARK VINA RESULT:    -6.244      1.898      2.762
REMARK INTER + INTRA:          -9.791
REMARK INTER:                  -8.713
REMARK INTRA:                  -1.078
REMARK UNBOUND:                -1.357
REMARK  Name = CNP0008747_1.pdb
REMARK  9 active torsions:
REMARK  status: ('A' for Active; 'I' for Inactive)
REMARK    1  A    between atoms: C1_1  and  O1_2
REMARK    2  A    between atoms: O1_2  and  C2_3
REMARK    3  A    between atoms: C3_4  and  C4_5
REMARK    4  A    between atoms: C4_5  and  O2_6
REMARK    5  A    between atoms: C17_22  and  C18_23
REMARK    6  A    between atoms: C18_23  and  O6_24
REMARK    7  A    between atoms: C18_23  and  C19_25
REMARK    8  A    between atoms: C23_29  and  C24_30
REMARK    9  A    between atoms: C32_39  and  C33_40
REMARK                            x       y       z     vdW  Elec       q    Type
REMARK                         _______ _______ _______ _____ _____    ______ ____
ROOT
ATOM      1  C2  UNL     1      19.359  38.070  35.219  0.00  0.00    +0.000 C 
ATOM      2  C3  UNL     1      19.400  39.378  34.983  0.00  0.00    +0.000 C 
ATOM      3  C5  UNL     1      19.802  40.017  36.230  0.00  0.00    +0.000 C 
ATOM      4  O3  UNL     1      19.937  41.255  36.411  0.00  0.00    +0.000 OA
ATOM      5  O4  UNL     1      20.024  39.062  37.211  0.00  0.00    +0.000 OA
ATOM      6  C6  UNL     1      19.772  37.834  36.609  0.00  0.00    +0.000 C 
ATOM      7  C7  UNL     1      19.945  36.649  37.205  0.00  0.00    +0.000 C 
ATOM      8  O5  UNL     1      19.823  35.453  36.525  0.00  0.00    +0.000 OA
ATOM      9  C8  UNL     1      20.216  34.427  37.356  0.00  0.00    +0.000 C 
ATOM     10  C9  UNL     1      20.580  33.232  36.863  0.00  0.00    +0.000 C 
ATOM     11  C10 UNL     1      21.461  32.265  37.622  0.00  0.00    +0.000 C 
ATOM     12  C11 UNL     1      20.862  31.894  38.941  0.00  0.00    +0.000 C 
ATOM     13  C12 UNL     1      20.945  32.789  39.925  0.00  0.00    +0.000 C 
ATOM     14  C13 UNL     1      21.459  34.198  39.603  0.00  0.00    +0.000 C 
ATOM     15  C14 UNL     1      21.721  34.907  40.963  0.00  0.00    +0.000 C 
ATOM     16  C15 UNL     1      22.923  34.282  41.697  0.00  0.00    +0.000 C 
ATOM     17  C16 UNL     1      24.112  33.973  40.762  0.00  0.00    +0.000 C 
ATOM     18  C17 UNL     1      23.941  34.642  39.382  0.00  0.00    +0.000 C 
ATOM     19  N1  UNL     1      22.689  34.157  38.731  0.00  0.00    +0.000 NA
ATOM     20  C30 UNL     1      22.829  32.916  37.912  0.00  0.00    +0.000 C 
ATOM     21  C31 UNL     1      20.313  34.894  38.795  0.00  0.00    +0.000 C 
ATOM     22  C32 UNL     1      20.394  36.441  38.630  0.00  0.00    +0.000 C 
ATOM     23  C33 UNL     1      19.482  37.173  39.629  0.00  0.00    +0.000 C 
ENDROOT
BRANCH   1  25
ATOM     24  C1  UNL     1      17.620  36.706  34.147  0.00  0.00    +0.000 C 
ATOM     25  O1  UNL     1      18.978  37.103  34.288  0.00  0.00    +0.000 OA
ENDBRANCH   1  25
BRANCH   2  26
ATOM     26  C4  UNL     1      19.022  40.069  33.705  0.00  0.00    +0.000 C 
BRANCH  26  27
ATOM     27  O2  UNL     1      19.655  39.459  32.612  0.00  0.00    +0.000 OA
ATOM     28  H6  UNL     1      19.591  38.480  32.759  0.00  0.00    +0.000 HD
ENDBRANCH  26  27
ENDBRANCH   2  26
BRANCH  18  29
ATOM     29  C18 UNL     1      25.206  34.523  38.464  0.00  0.00    +0.000 C 
BRANCH  29  30
ATOM     30  C19 UNL     1      26.572  34.760  39.181  0.00  0.00    +0.000 C 
ATOM     31  C20 UNL     1      26.611  36.156  39.774  0.00  0.00    +0.000 C 
ATOM     32  C21 UNL     1      27.235  36.447  40.926  0.00  0.00    +0.000 C 
ATOM     33  C22 UNL     1      27.799  35.386  41.832  0.00  0.00    +0.000 C 
ATOM     34  C23 UNL     1      28.140  34.086  41.074  0.00  0.00    +0.000 C 
ATOM     35  C29 UNL     1      26.920  33.673  40.228  0.00  0.00    +0.000 C 
BRANCH  34  36
ATOM     36  C24 UNL     1      28.554  32.959  42.062  0.00  0.00    +0.000 C 
ATOM     37  C25 UNL     1      27.377  32.084  42.503  0.00  0.00    +0.000 C 
ATOM     38  C26 UNL     1      27.688  31.612  43.923  0.00  0.00    +0.000 C 
ATOM     39  C27 UNL     1      28.926  32.374  44.384  0.00  0.00    +0.000 C 
ATOM     40  C28 UNL     1      29.142  33.485  43.370  0.00  0.00    +0.000 C 
ENDBRANCH  34  36
ENDBRANCH  29  30
BRANCH  29  41
ATOM     41  O6  UNL     1      25.090  35.376  37.349  0.00  0.00    +0.000 OA
ATOM     42  H19 UNL     1      24.253  35.142  36.869  0.00  0.00    +0.000 HD
ENDBRANCH  29  41
ENDBRANCH  18  29
TORSDOF 7
ENDMDL
MODEL 10
REMARK VINA RESULT:    -6.221      2.661      8.743
REMARK INTER + INTRA:          -9.759
REMARK INTER:                  -8.476
REMARK INTRA:                  -1.284
REMARK UNBOUND:                -1.357
REMARK  Name = CNP0008747_1.pdb
REMARK  9 active torsions:
REMARK  status: ('A' for Active; 'I' for Inactive)
REMARK    1  A    between atoms: C1_1  and  O1_2
REMARK    2  A    between atoms: O1_2  and  C2_3
REMARK    3  A    between atoms: C3_4  and  C4_5
REMARK    4  A    between atoms: C4_5  and  O2_6
REMARK    5  A    between atoms: C17_22  and  C18_23
REMARK    6  A    between atoms: C18_23  and  O6_24
REMARK    7  A    between atoms: C18_23  and  C19_25
REMARK    8  A    between atoms: C23_29  and  C24_30
REMARK    9  A    between atoms: C32_39  and  C33_40
REMARK                            x       y       z     vdW  Elec       q    Type
REMARK                         _______ _______ _______ _____ _____    ______ ____
ROOT
ATOM      1  C2  UNL     1      26.905  36.106  40.565  0.00  0.00    +0.000 C 
ATOM      2  C3  UNL     1      28.098  36.649  40.346  0.00  0.00    +0.000 C 
ATOM      3  C5  UNL     1      28.328  36.592  38.907  0.00  0.00    +0.000 C 
ATOM      4  O3  UNL     1      29.360  36.995  38.311  0.00  0.00    +0.000 OA
ATOM      5  O4  UNL     1      27.235  36.026  38.267  0.00  0.00    +0.000 OA
ATOM      6  C6  UNL     1      26.321  35.726  39.272  0.00  0.00    +0.000 C 
ATOM      7  C7  UNL     1      25.098  35.229  39.057  0.00  0.00    +0.000 C 
ATOM      8  O5  UNL     1      24.170  35.082  40.071  0.00  0.00    +0.000 OA
ATOM      9  C8  UNL     1      22.965  34.707  39.520  0.00  0.00    +0.000 C 
ATOM     10  C9  UNL     1      21.811  34.876  40.186  0.00  0.00    +0.000 C 
ATOM     11  C10 UNL     1      20.468  34.957  39.494  0.00  0.00    +0.000 C 
ATOM     12  C11 UNL     1      20.190  33.729  38.686  0.00  0.00    +0.000 C 
ATOM     13  C12 UNL     1      20.820  33.609  37.518  0.00  0.00    +0.000 C 
ATOM     14  C13 UNL     1      21.922  34.614  37.163  0.00  0.00    +0.000 C 
ATOM     15  C14 UNL     1      22.255  34.410  35.657  0.00  0.00    +0.000 C 
ATOM     16  C15 UNL     1      21.092  34.873  34.759  0.00  0.00    +0.000 C 
ATOM     17  C16 UNL     1      20.460  36.203  35.222  0.00  0.00    +0.000 C 
ATOM     18  C17 UNL     1      21.332  36.912  36.279  0.00  0.00    +0.000 C 
ATOM     19  N1  UNL     1      21.505  36.031  37.472  0.00  0.00    +0.000 NA
ATOM     20  C30 UNL     1      20.449  36.154  38.521  0.00  0.00    +0.000 C 
ATOM     21  C31 UNL     1      23.137  34.255  38.083  0.00  0.00    +0.000 C 
ATOM     22  C32 UNL     1      24.519  34.870  37.711  0.00  0.00    +0.000 C 
ATOM     23  C33 UNL     1      25.410  33.868  36.956  0.00  0.00    +0.000 C 
ENDROOT
BRANCH   1  25
ATOM     24  C1  UNL     1      26.482  34.719  42.548  0.00  0.00    +0.000 C 
ATOM     25  O1  UNL     1      26.326  35.932  41.822  0.00  0.00    +0.000 OA
ENDBRANCH   1  25
BRANCH   2  26
ATOM     26  C4  UNL     1      29.061  37.145  41.386  0.00  0.00    +0.000 C 
BRANCH  26  27
ATOM     27  O2  UNL     1      30.376  36.807  41.036  0.00  0.00    +0.000 OA
ATOM     28  H6  UNL     1      30.645  37.430  40.311  0.00  0.00    +0.000 HD
ENDBRANCH  26  27
ENDBRANCH   2  26
BRANCH  18  29
ATOM     29  C18 UNL     1      20.837  38.355  36.638  0.00  0.00    +0.000 C 
BRANCH  29  30
ATOM     30  C19 UNL     1      20.309  39.196  35.434  0.00  0.00    +0.000 C 
ATOM     31  C20 UNL     1      19.120  40.034  35.868  0.00  0.00    +0.000 C 
ATOM     32  C21 UNL     1      18.871  41.260  35.384  0.00  0.00    +0.000 C 
ATOM     33  C22 UNL     1      19.843  41.996  34.502  0.00  0.00    +0.000 C 
ATOM     34  C23 UNL     1      20.786  41.041  33.741  0.00  0.00    +0.000 C 
ATOM     35  C29 UNL     1      21.404  40.050  34.748  0.00  0.00    +0.000 C 
BRANCH  34  36
ATOM     36  C24 UNL     1      21.885  41.834  32.979  0.00  0.00    +0.000 C 
ATOM     37  C25 UNL     1      21.362  43.125  32.341  0.00  0.00    +0.000 C 
ATOM     38  C26 UNL     1      22.196  43.361  31.082  0.00  0.00    +0.000 C 
ATOM     39  C27 UNL     1      23.049  42.116  30.872  0.00  0.00    +0.000 C 
ATOM     40  C28 UNL     1      22.494  41.059  31.813  0.00  0.00    +0.000 C 
ENDBRANCH  34  36
ENDBRANCH  29  30
BRANCH  29  41
ATOM     41  O6  UNL     1      21.840  39.066  37.324  0.00  0.00    +0.000 OA
ATOM     42  H19 UNL     1      21.812  38.795  38.278  0.00  0.00    +0.000 HD
ENDBRANCH  29  41
ENDBRANCH  18  29
TORSDOF 7
ENDMDL
