MODEL 1
REMARK VINA RESULT:    -8.345      0.000      0.000
REMARK INTER + INTRA:         -11.730
REMARK INTER:                 -10.785
REMARK INTRA:                  -0.945
REMARK UNBOUND:                -0.945
REMARK  Name = CNP0123550_1.pdb
REMARK  6 active torsions:
REMARK  status: ('A' for Active; 'I' for Inactive)
REMARK    1  A    between atoms: C1_1  and  C2_2
REMARK    2  A    between atoms: C3_3  and  C4_4
REMARK    3  A    between atoms: C4_4  and  C5_5
REMARK    4  A    between atoms: C14_16  and  O3_17
REMARK    5  A    between atoms: O3_17  and  C15_18
REMARK    6  A    between atoms: C15_18  and  C16_19
REMARK                            x       y       z     vdW  Elec       q    Type
REMARK                         _______ _______ _______ _____ _____    ______ ____
ROOT
ATOM      1  C1  UNL     1      18.595  37.158  35.763  0.00  0.00    +0.000 C 
ATOM      2  C2  UNL     1      19.094  38.519  36.208  0.00  0.00    +0.000 A 
ATOM      3  C3  UNL     1      19.571  38.748  37.529  0.00  0.00    +0.000 A 
ATOM      4  C11 UNL     1      20.016  40.047  37.861  0.00  0.00    +0.000 A 
ATOM      5  O1  UNL     1      20.444  40.305  39.018  0.00  0.00    +0.000 OA
ATOM      6  O2  UNL     1      19.987  41.025  36.967  0.00  0.00    +0.000 OA
ATOM      7  C12 UNL     1      19.540  40.864  35.731  0.00  0.00    +0.000 A 
ATOM      8  C13 UNL     1      19.538  41.960  34.863  0.00  0.00    +0.000 A 
ATOM      9  C14 UNL     1      19.062  41.836  33.556  0.00  0.00    +0.000 A 
ATOM     10  C28 UNL     1      18.580  40.591  33.118  0.00  0.00    +0.000 A 
ATOM     11  C29 UNL     1      18.583  39.488  33.976  0.00  0.00    +0.000 A 
ATOM     12  C30 UNL     1      19.068  39.606  35.297  0.00  0.00    +0.000 A 
ENDROOT
BRANCH   3  13
ATOM     13  C4  UNL     1      19.573  37.664  38.597  0.00  0.00    +0.000 C 
BRANCH  13  14
ATOM     14  C5  UNL     1      20.852  36.863  38.572  0.00  0.00    +0.000 A 
ATOM     15  C6  UNL     1      20.961  35.673  39.313  0.00  0.00    +0.000 A 
ATOM     16  C7  UNL     1      22.151  34.940  39.303  0.00  0.00    +0.000 A 
ATOM     17  C8  UNL     1      23.246  35.392  38.562  0.00  0.00    +0.000 A 
ATOM     18  C9  UNL     1      23.153  36.583  37.836  0.00  0.00    +0.000 A 
ATOM     19  C10 UNL     1      21.965  37.321  37.847  0.00  0.00    +0.000 A 
ENDBRANCH  13  14
ENDBRANCH   3  13
BRANCH   9  20
ATOM     20  O3  UNL     1      19.086  42.972  32.732  0.00  0.00    +0.000 OA
BRANCH  20  21
ATOM     21  C15 UNL     1      20.214  43.428  31.985  0.00  0.00    +0.000 C 
BRANCH  21  22
ATOM     22  C16 UNL     1      20.682  44.771  32.479  0.00  0.00    +0.000 C 
ATOM     23  O4  UNL     1      20.245  45.182  33.589  0.00  0.00    +0.000 OA
ATOM     24  N1  UNL     1      21.614  45.582  31.730  0.00  0.00    +0.000 N 
ATOM     25  C17 UNL     1      22.405  45.022  30.620  0.00  0.00    +0.000 C 
ATOM     26  C18 UNL     1      23.813  45.656  30.557  0.00  0.00    +0.000 C 
ATOM     27  C19 UNL     1      23.721  47.181  30.574  0.00  0.00    +0.000 C 
ATOM     28  C20 UNL     1      23.026  47.601  31.868  0.00  0.00    +0.000 C 
ATOM     29  C21 UNL     1      21.593  47.046  31.884  0.00  0.00    +0.000 C 
ATOM     30  C22 UNL     1      23.785  47.068  33.065  0.00  0.00    +0.000 A 
ATOM     31  C23 UNL     1      23.650  47.740  34.291  0.00  0.00    +0.000 A 
ATOM     32  C24 UNL     1      24.249  47.223  35.433  0.00  0.00    +0.000 A 
ATOM     33  C25 UNL     1      24.973  46.040  35.355  0.00  0.00    +0.000 A 
ATOM     34  C26 UNL     1      25.095  45.381  34.128  0.00  0.00    +0.000 A 
ATOM     35  O5  UNL     1      25.774  44.319  34.078  0.00  0.00    +0.000 OA
ATOM     36  N2  UNL     1      24.491  45.884  32.998  0.00  0.00    +0.000 N 
ATOM     37  C27 UNL     1      24.720  45.182  31.712  0.00  0.00    +0.000 C 
ENDBRANCH  21  22
ENDBRANCH  20  21
ENDBRANCH   9  20
TORSDOF 5
ENDMDL
MODEL 2
REMARK VINA RESULT:    -8.162      6.052     10.742
REMARK INTER + INTRA:         -11.493
REMARK INTER:                 -10.680
REMARK INTRA:                  -0.813
REMARK UNBOUND:                -0.945
REMARK  Name = CNP0123550_1.pdb
REMARK  6 active torsions:
REMARK  status: ('A' for Active; 'I' for Inactive)
REMARK    1  A    between atoms: C1_1  and  C2_2
REMARK    2  A    between atoms: C3_3  and  C4_4
REMARK    3  A    between atoms: C4_4  and  C5_5
REMARK    4  A    between atoms: C14_16  and  O3_17
REMARK    5  A    between atoms: O3_17  and  C15_18
REMARK    6  A    between atoms: C15_18  and  C16_19
REMARK                            x       y       z     vdW  Elec       q    Type
REMARK                         _______ _______ _______ _____ _____    ______ ____
ROOT
ATOM      1  C1  UNL     1      30.317  36.904  31.351  0.00  0.00    +0.000 C 
ATOM      2  C2  UNL     1      29.674  37.821  32.374  0.00  0.00    +0.000 A 
ATOM      3  C3  UNL     1      30.343  38.973  32.875  0.00  0.00    +0.000 A 
ATOM      4  C11 UNL     1      29.672  39.771  33.828  0.00  0.00    +0.000 A 
ATOM      5  O1  UNL     1      30.221  40.801  34.305  0.00  0.00    +0.000 OA
ATOM      6  O2  UNL     1      28.455  39.454  34.245  0.00  0.00    +0.000 OA
ATOM      7  C12 UNL     1      27.799  38.386  33.819  0.00  0.00    +0.000 A 
ATOM      8  C13 UNL     1      26.523  38.128  34.328  0.00  0.00    +0.000 A 
ATOM      9  C14 UNL     1      25.802  37.005  33.916  0.00  0.00    +0.000 A 
ATOM     10  C28 UNL     1      26.377  36.128  32.980  0.00  0.00    +0.000 A 
ATOM     11  C29 UNL     1      27.649  36.381  32.461  0.00  0.00    +0.000 A 
ATOM     12  C30 UNL     1      28.380  37.518  32.870  0.00  0.00    +0.000 A 
ENDROOT
BRANCH   3  13
ATOM     13  C4  UNL     1      31.759  39.342  32.457  0.00  0.00    +0.000 C 
BRANCH  13  14
ATOM     14  C5  UNL     1      31.765  40.205  31.219  0.00  0.00    +0.000 A 
ATOM     15  C6  UNL     1      31.906  39.624  29.946  0.00  0.00    +0.000 A 
ATOM     16  C7  UNL     1      31.930  40.425  28.801  0.00  0.00    +0.000 A 
ATOM     17  C8  UNL     1      31.821  41.813  28.915  0.00  0.00    +0.000 A 
ATOM     18  C9  UNL     1      31.698  42.402  30.177  0.00  0.00    +0.000 A 
ATOM     19  C10 UNL     1      31.679  41.604  31.325  0.00  0.00    +0.000 A 
ENDBRANCH  13  14
ENDBRANCH   3  13
BRANCH   9  20
ATOM     20  O3  UNL     1      24.525  36.799  34.463  0.00  0.00    +0.000 OA
BRANCH  20  21
ATOM     21  C15 UNL     1      23.641  37.829  34.906  0.00  0.00    +0.000 C 
BRANCH  21  22
ATOM     22  C16 UNL     1      22.544  37.263  35.768  0.00  0.00    +0.000 C 
ATOM     23  O4  UNL     1      22.871  36.603  36.792  0.00  0.00    +0.000 OA
ATOM     24  N1  UNL     1      21.146  37.463  35.460  0.00  0.00    +0.000 N 
ATOM     25  C17 UNL     1      20.707  38.485  34.494  0.00  0.00    +0.000 C 
ATOM     26  C18 UNL     1      19.364  39.122  34.919  0.00  0.00    +0.000 C 
ATOM     27  C19 UNL     1      18.328  38.043  35.226  0.00  0.00    +0.000 C 
ATOM     28  C20 UNL     1      18.867  37.175  36.362  0.00  0.00    +0.000 C 
ATOM     29  C21 UNL     1      20.153  36.471  35.902  0.00  0.00    +0.000 C 
ATOM     30  C22 UNL     1      19.168  38.029  37.575  0.00  0.00    +0.000 A 
ATOM     31  C23 UNL     1      19.159  37.417  38.839  0.00  0.00    +0.000 A 
ATOM     32  C24 UNL     1      19.530  38.145  39.963  0.00  0.00    +0.000 A 
ATOM     33  C25 UNL     1      19.912  39.474  39.827  0.00  0.00    +0.000 A 
ATOM     34  C26 UNL     1      19.919  40.067  38.562  0.00  0.00    +0.000 A 
ATOM     35  O5  UNL     1      20.252  41.281  38.466  0.00  0.00    +0.000 OA
ATOM     36  N2  UNL     1      19.566  39.345  37.445  0.00  0.00    +0.000 N 
ATOM     37  C27 UNL     1      19.519  40.051  36.142  0.00  0.00    +0.000 C 
ENDBRANCH  21  22
ENDBRANCH  20  21
ENDBRANCH   9  20
TORSDOF 5
ENDMDL
MODEL 3
REMARK VINA RESULT:    -8.107      7.160     10.809
REMARK INTER + INTRA:         -11.422
REMARK INTER:                 -10.323
REMARK INTRA:                  -1.098
REMARK UNBOUND:                -0.945
REMARK  Name = CNP0123550_1.pdb
REMARK  6 active torsions:
REMARK  status: ('A' for Active; 'I' for Inactive)
REMARK    1  A    between atoms: C1_1  and  C2_2
REMARK    2  A    between atoms: C3_3  and  C4_4
REMARK    3  A    between atoms: C4_4  and  C5_5
REMARK    4  A    between atoms: C14_16  and  O3_17
REMARK    5  A    between atoms: O3_17  and  C15_18
REMARK    6  A    between atoms: C15_18  and  C16_19
REMARK                            x       y       z     vdW  Elec       q    Type
REMARK                         _______ _______ _______ _____ _____    ______ ____
ROOT
ATOM      1  C1  UNL     1      22.578  37.058  36.351  0.00  0.00    +0.000 C 
ATOM      2  C2  UNL     1      22.416  36.189  37.584  0.00  0.00    +0.000 A 
ATOM      3  C3  UNL     1      21.147  35.981  38.194  0.00  0.00    +0.000 A 
ATOM      4  C11 UNL     1      21.086  35.159  39.341  0.00  0.00    +0.000 A 
ATOM      5  O1  UNL     1      19.988  34.945  39.922  0.00  0.00    +0.000 OA
ATOM      6  O2  UNL     1      22.181  34.599  39.836  0.00  0.00    +0.000 OA
ATOM      7  C12 UNL     1      23.384  34.774  39.312  0.00  0.00    +0.000 A 
ATOM      8  C13 UNL     1      24.481  34.152  39.914  0.00  0.00    +0.000 A 
ATOM      9  C14 UNL     1      25.769  34.321  39.401  0.00  0.00    +0.000 A 
ATOM     10  C28 UNL     1      25.954  35.132  38.268  0.00  0.00    +0.000 A 
ATOM     11  C29 UNL     1      24.862  35.754  37.657  0.00  0.00    +0.000 A 
ATOM     12  C30 UNL     1      23.557  35.581  38.167  0.00  0.00    +0.000 A 
ENDROOT
BRANCH   3  13
ATOM     13  C4  UNL     1      19.876  36.645  37.685  0.00  0.00    +0.000 C 
BRANCH  13  14
ATOM     14  C5  UNL     1      19.785  38.085  38.130  0.00  0.00    +0.000 A 
ATOM     15  C6  UNL     1      19.818  39.126  37.185  0.00  0.00    +0.000 A 
ATOM     16  C7  UNL     1      19.752  40.459  37.600  0.00  0.00    +0.000 A 
ATOM     17  C8  UNL     1      19.660  40.766  38.960  0.00  0.00    +0.000 A 
ATOM     18  C9  UNL     1      19.644  39.739  39.908  0.00  0.00    +0.000 A 
ATOM     19  C10 UNL     1      19.715  38.404  39.497  0.00  0.00    +0.000 A 
ENDBRANCH  13  14
ENDBRANCH   3  13
BRANCH   9  20
ATOM     20  O3  UNL     1      26.831  33.671  40.049  0.00  0.00    +0.000 OA
BRANCH  20  21
ATOM     21  C15 UNL     1      27.534  34.168  41.188  0.00  0.00    +0.000 C 
BRANCH  21  22
ATOM     22  C16 UNL     1      27.733  35.657  41.091  0.00  0.00    +0.000 C 
ATOM     23  O4  UNL     1      27.014  36.402  41.812  0.00  0.00    +0.000 OA
ATOM     24  N1  UNL     1      28.719  36.244  40.213  0.00  0.00    +0.000 N 
ATOM     25  C17 UNL     1      29.796  35.437  39.613  0.00  0.00    +0.000 C 
ATOM     26  C18 UNL     1      31.107  36.247  39.494  0.00  0.00    +0.000 C 
ATOM     27  C19 UNL     1      30.852  37.588  38.807  0.00  0.00    +0.000 C 
ATOM     28  C20 UNL     1      29.841  38.367  39.646  0.00  0.00    +0.000 C 
ATOM     29  C21 UNL     1      28.509  37.602  39.686  0.00  0.00    +0.000 C 
ATOM     30  C22 UNL     1      30.360  38.546  41.057  0.00  0.00    +0.000 A 
ATOM     31  C23 UNL     1      29.880  39.629  41.811  0.00  0.00    +0.000 A 
ATOM     32  C24 UNL     1      30.256  39.767  43.142  0.00  0.00    +0.000 A 
ATOM     33  C25 UNL     1      31.100  38.827  43.719  0.00  0.00    +0.000 A 
ATOM     34  C26 UNL     1      31.565  37.752  42.957  0.00  0.00    +0.000 A 
ATOM     35  O5  UNL     1      32.347  36.922  43.498  0.00  0.00    +0.000 OA
ATOM     36  N2  UNL     1      31.184  37.606  41.643  0.00  0.00    +0.000 N 
ATOM     37  C27 UNL     1      31.773  36.489  40.865  0.00  0.00    +0.000 C 
ENDBRANCH  21  22
ENDBRANCH  20  21
ENDBRANCH   9  20
TORSDOF 5
ENDMDL
MODEL 4
REMARK VINA RESULT:    -7.848      6.775     11.010
REMARK INTER + INTRA:         -11.087
REMARK INTER:                 -10.069
REMARK INTRA:                  -1.018
REMARK UNBOUND:                -0.945
REMARK  Name = CNP0123550_1.pdb
REMARK  6 active torsions:
REMARK  status: ('A' for Active; 'I' for Inactive)
REMARK    1  A    between atoms: C1_1  and  C2_2
REMARK    2  A    between atoms: C3_3  and  C4_4
REMARK    3  A    between atoms: C4_4  and  C5_5
REMARK    4  A    between atoms: C14_16  and  O3_17
REMARK    5  A    between atoms: O3_17  and  C15_18
REMARK    6  A    between atoms: C15_18  and  C16_19
REMARK                            x       y       z     vdW  Elec       q    Type
REMARK                         _______ _______ _______ _____ _____    ______ ____
ROOT
ATOM      1  C1  UNL     1      20.994  35.016  40.107  0.00  0.00    +0.000 C 
ATOM      2  C2  UNL     1      22.065  35.520  39.160  0.00  0.00    +0.000 A 
ATOM      3  C3  UNL     1      21.762  36.404  38.086  0.00  0.00    +0.000 A 
ATOM      4  C11 UNL     1      22.820  36.824  37.249  0.00  0.00    +0.000 A 
ATOM      5  O1  UNL     1      22.605  37.604  36.282  0.00  0.00    +0.000 OA
ATOM      6  O2  UNL     1      24.059  36.404  37.458  0.00  0.00    +0.000 OA
ATOM      7  C12 UNL     1      24.388  35.573  38.434  0.00  0.00    +0.000 A 
ATOM      8  C13 UNL     1      25.722  35.176  38.565  0.00  0.00    +0.000 A 
ATOM      9  C14 UNL     1      26.109  34.290  39.572  0.00  0.00    +0.000 A 
ATOM     10  C28 UNL     1      25.137  33.793  40.458  0.00  0.00    +0.000 A 
ATOM     11  C29 UNL     1      23.802  34.187  40.337  0.00  0.00    +0.000 A 
ATOM     12  C30 UNL     1      23.407  35.088  39.325  0.00  0.00    +0.000 A 
ENDROOT
BRANCH   3  13
ATOM     13  C4  UNL     1      20.344  36.868  37.785  0.00  0.00    +0.000 C 
BRANCH  13  14
ATOM     14  C5  UNL     1      20.058  38.216  38.404  0.00  0.00    +0.000 A 
ATOM     15  C6  UNL     1      19.701  38.315  39.760  0.00  0.00    +0.000 A 
ATOM     16  C7  UNL     1      19.419  39.561  40.327  0.00  0.00    +0.000 A 
ATOM     17  C8  UNL     1      19.483  40.717  39.546  0.00  0.00    +0.000 A 
ATOM     18  C9  UNL     1      19.821  40.627  38.192  0.00  0.00    +0.000 A 
ATOM     19  C10 UNL     1      20.099  39.382  37.620  0.00  0.00    +0.000 A 
ENDBRANCH  13  14
ENDBRANCH   3  13
BRANCH   9  20
ATOM     20  O3  UNL     1      27.464  33.929  39.654  0.00  0.00    +0.000 OA
BRANCH  20  21
ATOM     21  C15 UNL     1      28.348  34.275  40.720  0.00  0.00    +0.000 C 
BRANCH  21  22
ATOM     22  C16 UNL     1      29.638  34.840  40.189  0.00  0.00    +0.000 C 
ATOM     23  O4  UNL     1      29.955  34.583  38.995  0.00  0.00    +0.000 OA
ATOM     24  N1  UNL     1      30.505  35.666  40.998  0.00  0.00    +0.000 N 
ATOM     25  C17 UNL     1      30.039  36.269  42.259  0.00  0.00    +0.000 C 
ATOM     26  C18 UNL     1      30.666  37.665  42.479  0.00  0.00    +0.000 C 
ATOM     27  C19 UNL     1      32.183  37.608  42.319  0.00  0.00    +0.000 C 
ATOM     28  C20 UNL     1      32.494  37.124  40.903  0.00  0.00    +0.000 C 
ATOM     29  C21 UNL     1      31.950  35.698  40.718  0.00  0.00    +0.000 C 
ATOM     30  C22 UNL     1      31.853  38.042  39.885  0.00  0.00    +0.000 A 
ATOM     31  C23 UNL     1      32.415  38.107  38.600  0.00  0.00    +0.000 A 
ATOM     32  C24 UNL     1      31.796  38.859  37.609  0.00  0.00    +0.000 A 
ATOM     33  C25 UNL     1      30.618  39.539  37.897  0.00  0.00    +0.000 A 
ATOM     34  C26 UNL     1      30.069  39.461  39.179  0.00  0.00    +0.000 A 
ATOM     35  O5  UNL     1      29.010  40.103  39.423  0.00  0.00    +0.000 OA
ATOM     36  N2  UNL     1      30.673  38.706  40.158  0.00  0.00    +0.000 N 
ATOM     37  C27 UNL     1      30.085  38.725  41.519  0.00  0.00    +0.000 C 
ENDBRANCH  21  22
ENDBRANCH  20  21
ENDBRANCH   9  20
TORSDOF 5
ENDMDL
MODEL 5
REMARK VINA RESULT:    -7.780      2.861      4.367
REMARK INTER + INTRA:         -10.999
REMARK INTER:                 -10.185
REMARK INTRA:                  -0.813
REMARK UNBOUND:                -0.945
REMARK  Name = CNP0123550_1.pdb
REMARK  6 active torsions:
REMARK  status: ('A' for Active; 'I' for Inactive)
REMARK    1  A    between atoms: C1_1  and  C2_2
REMARK    2  A    between atoms: C3_3  and  C4_4
REMARK    3  A    between atoms: C4_4  and  C5_5
REMARK    4  A    between atoms: C14_16  and  O3_17
REMARK    5  A    between atoms: O3_17  and  C15_18
REMARK    6  A    between atoms: C15_18  and  C16_19
REMARK                            x       y       z     vdW  Elec       q    Type
REMARK                         _______ _______ _______ _____ _____    ______ ____
ROOT
ATOM      1  C1  UNL     1      18.083  41.530  34.680  0.00  0.00    +0.000 C 
ATOM      2  C2  UNL     1      19.495  41.075  34.368  0.00  0.00    +0.000 A 
ATOM      3  C3  UNL     1      19.982  39.802  34.778  0.00  0.00    +0.000 A 
ATOM      4  C11 UNL     1      21.311  39.458  34.448  0.00  0.00    +0.000 A 
ATOM      5  O1  UNL     1      21.792  38.344  34.790  0.00  0.00    +0.000 OA
ATOM      6  O2  UNL     1      22.084  40.300  33.777  0.00  0.00    +0.000 OA
ATOM      7  C12 UNL     1      21.682  41.499  33.387  0.00  0.00    +0.000 A 
ATOM      8  C13 UNL     1      22.576  42.321  32.695  0.00  0.00    +0.000 A 
ATOM      9  C14 UNL     1      22.197  43.598  32.277  0.00  0.00    +0.000 A 
ATOM     10  C28 UNL     1      20.899  44.055  32.563  0.00  0.00    +0.000 A 
ATOM     11  C29 UNL     1      19.996  43.238  33.250  0.00  0.00    +0.000 A 
ATOM     12  C30 UNL     1      20.373  41.944  33.669  0.00  0.00    +0.000 A 
ENDROOT
BRANCH   3  13
ATOM     13  C4  UNL     1      19.140  38.829  35.592  0.00  0.00    +0.000 C 
BRANCH  13  14
ATOM     14  C5  UNL     1      19.382  38.991  37.073  0.00  0.00    +0.000 A 
ATOM     15  C6  UNL     1      19.845  40.214  37.590  0.00  0.00    +0.000 A 
ATOM     16  C7  UNL     1      20.085  40.357  38.959  0.00  0.00    +0.000 A 
ATOM     17  C8  UNL     1      19.874  39.280  39.824  0.00  0.00    +0.000 A 
ATOM     18  C9  UNL     1      19.430  38.055  39.318  0.00  0.00    +0.000 A 
ATOM     19  C10 UNL     1      19.193  37.906  37.948  0.00  0.00    +0.000 A 
ENDBRANCH  13  14
ENDBRANCH   3  13
BRANCH   9  20
ATOM     20  O3  UNL     1      23.139  44.377  31.586  0.00  0.00    +0.000 OA
BRANCH  20  21
ATOM     21  C15 UNL     1      23.168  45.804  31.555  0.00  0.00    +0.000 C 
BRANCH  21  22
ATOM     22  C16 UNL     1      24.190  46.344  32.519  0.00  0.00    +0.000 C 
ATOM     23  O4  UNL     1      25.054  45.548  32.979  0.00  0.00    +0.000 OA
ATOM     24  N1  UNL     1      24.212  47.733  32.916  0.00  0.00    +0.000 N 
ATOM     25  C17 UNL     1      23.462  48.760  32.172  0.00  0.00    +0.000 C 
ATOM     26  C18 UNL     1      24.224  50.104  32.146  0.00  0.00    +0.000 C 
ATOM     27  C19 UNL     1      24.646  50.514  33.555  0.00  0.00    +0.000 C 
ATOM     28  C20 UNL     1      25.554  49.421  34.117  0.00  0.00    +0.000 C 
ATOM     29  C21 UNL     1      24.764  48.107  34.228  0.00  0.00    +0.000 C 
ATOM     30  C22 UNL     1      26.747  49.214  33.208  0.00  0.00    +0.000 A 
ATOM     31  C23 UNL     1      27.920  48.678  33.762  0.00  0.00    +0.000 A 
ATOM     32  C24 UNL     1      29.001  48.380  32.941  0.00  0.00    +0.000 A 
ATOM     33  C25 UNL     1      28.909  48.609  31.573  0.00  0.00    +0.000 A 
ATOM     34  C26 UNL     1      27.733  49.139  31.037  0.00  0.00    +0.000 A 
ATOM     35  O5  UNL     1      27.680  49.357  29.795  0.00  0.00    +0.000 OA
ATOM     36  N2  UNL     1      26.657  49.423  31.846  0.00  0.00    +0.000 N 
ATOM     37  C27 UNL     1      25.465  50.055  31.229  0.00  0.00    +0.000 C 
ENDBRANCH  21  22
ENDBRANCH  20  21
ENDBRANCH   9  20
TORSDOF 5
ENDMDL
MODEL 6
REMARK VINA RESULT:    -7.678      2.746      4.030
REMARK INTER + INTRA:         -10.867
REMARK INTER:                 -10.021
REMARK INTRA:                  -0.846
REMARK UNBOUND:                -0.945
REMARK  Name = CNP0123550_1.pdb
REMARK  6 active torsions:
REMARK  status: ('A' for Active; 'I' for Inactive)
REMARK    1  A    between atoms: C1_1  and  C2_2
REMARK    2  A    between atoms: C3_3  and  C4_4
REMARK    3  A    between atoms: C4_4  and  C5_5
REMARK    4  A    between atoms: C14_16  and  O3_17
REMARK    5  A    between atoms: O3_17  and  C15_18
REMARK    6  A    between atoms: C15_18  and  C16_19
REMARK                            x       y       z     vdW  Elec       q    Type
REMARK                         _______ _______ _______ _____ _____    ______ ____
ROOT
ATOM      1  C1  UNL     1      22.117  38.049  34.988  0.00  0.00    +0.000 C 
ATOM      2  C2  UNL     1      21.387  39.311  34.569  0.00  0.00    +0.000 A 
ATOM      3  C3  UNL     1      20.033  39.551  34.934  0.00  0.00    +0.000 A 
ATOM      4  C11 UNL     1      19.429  40.752  34.501  0.00  0.00    +0.000 A 
ATOM      5  O1  UNL     1      18.231  41.012  34.794  0.00  0.00    +0.000 OA
ATOM      6  O2  UNL     1      20.104  41.629  33.772  0.00  0.00    +0.000 OA
ATOM      7  C12 UNL     1      21.360  41.444  33.396  0.00  0.00    +0.000 A 
ATOM      8  C13 UNL     1      21.984  42.421  32.616  0.00  0.00    +0.000 A 
ATOM      9  C14 UNL     1      23.303  42.259  32.186  0.00  0.00    +0.000 A 
ATOM     10  C28 UNL     1      24.002  41.094  32.546  0.00  0.00    +0.000 A 
ATOM     11  C29 UNL     1      23.388  40.113  33.330  0.00  0.00    +0.000 A 
ATOM     12  C30 UNL     1      22.057  40.275  33.772  0.00  0.00    +0.000 A 
ENDROOT
BRANCH   3  13
ATOM     13  C4  UNL     1      19.210  38.547  35.728  0.00  0.00    +0.000 C 
BRANCH  13  14
ATOM     14  C5  UNL     1      19.416  38.712  37.215  0.00  0.00    +0.000 A 
ATOM     15  C6  UNL     1      19.169  37.640  38.091  0.00  0.00    +0.000 A 
ATOM     16  C7  UNL     1      19.343  37.799  39.468  0.00  0.00    +0.000 A 
ATOM     17  C8  UNL     1      19.756  39.029  39.985  0.00  0.00    +0.000 A 
ATOM     18  C9  UNL     1      19.988  40.106  39.124  0.00  0.00    +0.000 A 
ATOM     19  C10 UNL     1      19.810  39.952  37.745  0.00  0.00    +0.000 A 
ENDBRANCH  13  14
ENDBRANCH   3  13
BRANCH   9  20
ATOM     20  O3  UNL     1      23.876  43.276  31.406  0.00  0.00    +0.000 OA
BRANCH  20  21
ATOM     21  C15 UNL     1      23.487  44.649  31.423  0.00  0.00    +0.000 C 
BRANCH  21  22
ATOM     22  C16 UNL     1      24.266  45.418  32.456  0.00  0.00    +0.000 C 
ATOM     23  O4  UNL     1      25.196  44.822  33.066  0.00  0.00    +0.000 OA
ATOM     24  N1  UNL     1      23.985  46.803  32.756  0.00  0.00    +0.000 N 
ATOM     25  C17 UNL     1      23.160  47.633  31.862  0.00  0.00    +0.000 C 
ATOM     26  C18 UNL     1      23.662  49.095  31.828  0.00  0.00    +0.000 C 
ATOM     27  C19 UNL     1      23.824  49.643  33.244  0.00  0.00    +0.000 C 
ATOM     28  C20 UNL     1      24.838  48.769  33.980  0.00  0.00    +0.000 C 
ATOM     29  C21 UNL     1      24.293  47.337  34.093  0.00  0.00    +0.000 C 
ATOM     30  C22 UNL     1      26.152  48.749  33.229  0.00  0.00    +0.000 A 
ATOM     31  C23 UNL     1      27.325  48.471  33.949  0.00  0.00    +0.000 A 
ATOM     32  C24 UNL     1      28.536  48.344  33.278  0.00  0.00    +0.000 A 
ATOM     33  C25 UNL     1      28.575  48.486  31.896  0.00  0.00    +0.000 A 
ATOM     34  C26 UNL     1      27.398  48.759  31.194  0.00  0.00    +0.000 A 
ATOM     35  O5  UNL     1      27.461  48.903  29.942  0.00  0.00    +0.000 OA
ATOM     36  N2  UNL     1      26.196  48.872  31.854  0.00  0.00    +0.000 N 
ATOM     37  C27 UNL     1      24.995  49.238  31.064  0.00  0.00    +0.000 C 
ENDBRANCH  21  22
ENDBRANCH  20  21
ENDBRANCH   9  20
TORSDOF 5
ENDMDL
MODEL 7
REMARK VINA RESULT:    -7.669      2.180      3.347
REMARK INTER + INTRA:         -10.855
REMARK INTER:                  -9.746
REMARK INTRA:                  -1.109
REMARK UNBOUND:                -0.945
REMARK  Name = CNP0123550_1.pdb
REMARK  6 active torsions:
REMARK  status: ('A' for Active; 'I' for Inactive)
REMARK    1  A    between atoms: C1_1  and  C2_2
REMARK    2  A    between atoms: C3_3  and  C4_4
REMARK    3  A    between atoms: C4_4  and  C5_5
REMARK    4  A    between atoms: C14_16  and  O3_17
REMARK    5  A    between atoms: O3_17  and  C15_18
REMARK    6  A    between atoms: C15_18  and  C16_19
REMARK                            x       y       z     vdW  Elec       q    Type
REMARK                         _______ _______ _______ _____ _____    ______ ____
ROOT
ATOM      1  C1  UNL     1      22.632  39.024  34.372  0.00  0.00    +0.000 C 
ATOM      2  C2  UNL     1      21.491  39.974  34.065  0.00  0.00    +0.000 A 
ATOM      3  C3  UNL     1      20.155  39.700  34.474  0.00  0.00    +0.000 A 
ATOM      4  C11 UNL     1      19.151  40.637  34.145  0.00  0.00    +0.000 A 
ATOM      5  O1  UNL     1      17.952  40.441  34.481  0.00  0.00    +0.000 OA
ATOM      6  O2  UNL     1      19.445  41.740  33.471  0.00  0.00    +0.000 OA
ATOM      7  C12 UNL     1      20.668  42.032  33.058  0.00  0.00    +0.000 A 
ATOM      8  C13 UNL     1      20.877  43.214  32.342  0.00  0.00    +0.000 A 
ATOM      9  C14 UNL     1      22.149  43.553  31.875  0.00  0.00    +0.000 A 
ATOM     10  C28 UNL     1      23.225  42.687  32.132  0.00  0.00    +0.000 A 
ATOM     11  C29 UNL     1      23.027  41.505  32.851  0.00  0.00    +0.000 A 
ATOM     12  C30 UNL     1      21.745  41.160  33.330  0.00  0.00    +0.000 A 
ENDROOT
BRANCH   3  13
ATOM     13  C4  UNL     1      19.771  38.422  35.205  0.00  0.00    +0.000 C 
BRANCH  13  14
ATOM     14  C5  UNL     1      19.771  38.617  36.702  0.00  0.00    +0.000 A 
ATOM     15  C6  UNL     1      19.104  37.706  37.539  0.00  0.00    +0.000 A 
ATOM     16  C7  UNL     1      19.090  37.896  38.924  0.00  0.00    +0.000 A 
ATOM     17  C8  UNL     1      19.735  39.002  39.485  0.00  0.00    +0.000 A 
ATOM     18  C9  UNL     1      20.387  39.923  38.660  0.00  0.00    +0.000 A 
ATOM     19  C10 UNL     1      20.399  39.738  37.274  0.00  0.00    +0.000 A 
ENDBRANCH  13  14
ENDBRANCH   3  13
BRANCH   9  20
ATOM     20  O3  UNL     1      22.296  44.754  31.163  0.00  0.00    +0.000 OA
BRANCH  20  21
ATOM     21  C15 UNL     1      21.498  45.924  31.343  0.00  0.00    +0.000 C 
BRANCH  21  22
ATOM     22  C16 UNL     1      21.920  46.682  32.574  0.00  0.00    +0.000 C 
ATOM     23  O4  UNL     1      21.255  46.516  33.633  0.00  0.00    +0.000 OA
ATOM     24  N1  UNL     1      23.058  47.573  32.573  0.00  0.00    +0.000 N 
ATOM     25  C17 UNL     1      24.055  47.550  31.489  0.00  0.00    +0.000 C 
ATOM     26  C18 UNL     1      25.476  47.840  32.026  0.00  0.00    +0.000 C 
ATOM     27  C19 UNL     1      25.483  49.108  32.877  0.00  0.00    +0.000 C 
ATOM     28  C20 UNL     1      24.525  48.900  34.049  0.00  0.00    +0.000 C 
ATOM     29  C21 UNL     1      23.097  48.704  33.514  0.00  0.00    +0.000 C 
ATOM     30  C22 UNL     1      24.933  47.680  34.848  0.00  0.00    +0.000 A 
ATOM     31  C23 UNL     1      24.550  47.610  36.197  0.00  0.00    +0.000 A 
ATOM     32  C24 UNL     1      24.818  46.463  36.934  0.00  0.00    +0.000 A 
ATOM     33  C25 UNL     1      25.460  45.390  36.328  0.00  0.00    +0.000 A 
ATOM     34  C26 UNL     1      25.831  45.474  34.984  0.00  0.00    +0.000 A 
ATOM     35  O5  UNL     1      26.430  44.494  34.460  0.00  0.00    +0.000 OA
ATOM     36  N2  UNL     1      25.554  46.603  34.247  0.00  0.00    +0.000 N 
ATOM     37  C27 UNL     1      26.042  46.662  32.848  0.00  0.00    +0.000 C 
ENDBRANCH  21  22
ENDBRANCH  20  21
ENDBRANCH   9  20
TORSDOF 5
ENDMDL
MODEL 8
REMARK VINA RESULT:    -7.572      7.014     11.924
REMARK INTER + INTRA:         -10.730
REMARK INTER:                  -9.474
REMARK INTRA:                  -1.256
REMARK UNBOUND:                -0.945
REMARK  Name = CNP0123550_1.pdb
REMARK  6 active torsions:
REMARK  status: ('A' for Active; 'I' for Inactive)
REMARK    1  A    between atoms: C1_1  and  C2_2
REMARK    2  A    between atoms: C3_3  and  C4_4
REMARK    3  A    between atoms: C4_4  and  C5_5
REMARK    4  A    between atoms: C14_16  and  O3_17
REMARK    5  A    between atoms: O3_17  and  C15_18
REMARK    6  A    between atoms: C15_18  and  C16_19
REMARK                            x       y       z     vdW  Elec       q    Type
REMARK                         _______ _______ _______ _____ _____    ______ ____
ROOT
ATOM      1  C1  UNL     1      29.262  36.318  36.853  0.00  0.00    +0.000 C 
ATOM      2  C2  UNL     1      29.233  36.675  38.327  0.00  0.00    +0.000 A 
ATOM      3  C3  UNL     1      30.297  37.390  38.947  0.00  0.00    +0.000 A 
ATOM      4  C11 UNL     1      30.190  37.680  40.325  0.00  0.00    +0.000 A 
ATOM      5  O1  UNL     1      31.105  38.308  40.923  0.00  0.00    +0.000 OA
ATOM      6  O2  UNL     1      29.130  37.295  41.021  0.00  0.00    +0.000 OA
ATOM      7  C12 UNL     1      28.124  36.617  40.493  0.00  0.00    +0.000 A 
ATOM      8  C13 UNL     1      27.054  36.244  41.312  0.00  0.00    +0.000 A 
ATOM      9  C14 UNL     1      25.979  35.516  40.798  0.00  0.00    +0.000 A 
ATOM     10  C28 UNL     1      25.983  35.157  39.438  0.00  0.00    +0.000 A 
ATOM     11  C29 UNL     1      27.045  35.531  38.611  0.00  0.00    +0.000 A 
ATOM     12  C30 UNL     1      28.131  36.271  39.124  0.00  0.00    +0.000 A 
ENDROOT
BRANCH   3  13
ATOM     13  C4  UNL     1      31.551  37.806  38.192  0.00  0.00    +0.000 C 
BRANCH  13  14
ATOM     14  C5  UNL     1      31.305  39.023  37.334  0.00  0.00    +0.000 A 
ATOM     15  C6  UNL     1      30.724  40.178  37.887  0.00  0.00    +0.000 A 
ATOM     16  C7  UNL     1      30.480  41.299  37.088  0.00  0.00    +0.000 A 
ATOM     17  C8  UNL     1      30.807  41.275  35.729  0.00  0.00    +0.000 A 
ATOM     18  C9  UNL     1      31.369  40.126  35.167  0.00  0.00    +0.000 A 
ATOM     19  C10 UNL     1      31.610  39.001  35.962  0.00  0.00    +0.000 A 
ENDBRANCH  13  14
ENDBRANCH   3  13
BRANCH   9  20
ATOM     20  O3  UNL     1      24.934  35.171  41.670  0.00  0.00    +0.000 OA
BRANCH  20  21
ATOM     21  C15 UNL     1      24.162  33.972  41.600  0.00  0.00    +0.000 C 
BRANCH  21  22
ATOM     22  C16 UNL     1      22.723  34.275  41.280  0.00  0.00    +0.000 C 
ATOM     23  O4  UNL     1      22.055  34.943  42.117  0.00  0.00    +0.000 OA
ATOM     24  N1  UNL     1      22.100  33.834  40.053  0.00  0.00    +0.000 N 
ATOM     25  C17 UNL     1      22.899  33.357  38.911  0.00  0.00    +0.000 C 
ATOM     26  C18 UNL     1      22.255  33.762  37.565  0.00  0.00    +0.000 C 
ATOM     27  C19 UNL     1      20.782  33.362  37.530  0.00  0.00    +0.000 C 
ATOM     28  C20 UNL     1      20.067  34.075  38.676  0.00  0.00    +0.000 C 
ATOM     29  C21 UNL     1      20.648  33.599  40.017  0.00  0.00    +0.000 C 
ATOM     30  C22 UNL     1      20.248  35.573  38.553  0.00  0.00    +0.000 A 
ATOM     31  C23 UNL     1      19.289  36.410  39.146  0.00  0.00    +0.000 A 
ATOM     32  C24 UNL     1      19.474  37.787  39.142  0.00  0.00    +0.000 A 
ATOM     33  C25 UNL     1      20.613  38.326  38.555  0.00  0.00    +0.000 A 
ATOM     34  C26 UNL     1      21.559  37.480  37.973  0.00  0.00    +0.000 A 
ATOM     35  O5  UNL     1      22.576  37.994  37.429  0.00  0.00    +0.000 OA
ATOM     36  N2  UNL     1      21.385  36.115  37.988  0.00  0.00    +0.000 N 
ATOM     37  C27 UNL     1      22.386  35.274  37.287  0.00  0.00    +0.000 C 
ENDBRANCH  21  22
ENDBRANCH  20  21
ENDBRANCH   9  20
TORSDOF 5
ENDMDL
MODEL 9
REMARK VINA RESULT:    -7.533      3.531      4.650
REMARK INTER + INTRA:         -10.680
REMARK INTER:                  -8.694
REMARK INTRA:                  -1.987
REMARK UNBOUND:                -0.945
REMARK  Name = CNP0123550_1.pdb
REMARK  6 active torsions:
REMARK  status: ('A' for Active; 'I' for Inactive)
REMARK    1  A    between atoms: C1_1  and  C2_2
REMARK    2  A    between atoms: C3_3  and  C4_4
REMARK    3  A    between atoms: C4_4  and  C5_5
REMARK    4  A    between atoms: C14_16  and  O3_17
REMARK    5  A    between atoms: O3_17  and  C15_18
REMARK    6  A    between atoms: C15_18  and  C16_19
REMARK                            x       y       z     vdW  Elec       q    Type
REMARK                         _______ _______ _______ _____ _____    ______ ____
ROOT
ATOM      1  C1  UNL     1      18.573  37.306  35.809  0.00  0.00    +0.000 C 
ATOM      2  C2  UNL     1      19.096  38.703  36.080  0.00  0.00    +0.000 A 
ATOM      3  C3  UNL     1      19.587  39.086  37.360  0.00  0.00    +0.000 A 
ATOM      4  C11 UNL     1      20.053  40.409  37.527  0.00  0.00    +0.000 A 
ATOM      5  O1  UNL     1      20.495  40.800  38.641  0.00  0.00    +0.000 OA
ATOM      6  O2  UNL     1      20.031  41.270  36.520  0.00  0.00    +0.000 OA
ATOM      7  C12 UNL     1      19.572  40.965  35.316  0.00  0.00    +0.000 A 
ATOM      8  C13 UNL     1      19.578  41.946  34.320  0.00  0.00    +0.000 A 
ATOM      9  C14 UNL     1      19.090  41.671  33.041  0.00  0.00    +0.000 A 
ATOM     10  C28 UNL     1      18.586  40.388  32.762  0.00  0.00    +0.000 A 
ATOM     11  C29 UNL     1      18.581  39.400  33.750  0.00  0.00    +0.000 A 
ATOM     12  C30 UNL     1      19.078  39.671  35.043  0.00  0.00    +0.000 A 
ENDROOT
BRANCH   3  13
ATOM     13  C4  UNL     1      19.582  38.142  38.553  0.00  0.00    +0.000 C 
BRANCH  13  14
ATOM     14  C5  UNL     1      20.757  37.194  38.516  0.00  0.00    +0.000 A 
ATOM     15  C6  UNL     1      20.716  35.981  39.226  0.00  0.00    +0.000 A 
ATOM     16  C7  UNL     1      21.811  35.113  39.205  0.00  0.00    +0.000 A 
ATOM     17  C8  UNL     1      22.959  35.450  38.483  0.00  0.00    +0.000 A 
ATOM     18  C9  UNL     1      23.015  36.661  37.788  0.00  0.00    +0.000 A 
ATOM     19  C10 UNL     1      21.924  37.535  37.810  0.00  0.00    +0.000 A 
ENDBRANCH  13  14
ENDBRANCH   3  13
BRANCH   9  20
ATOM     20  O3  UNL     1      19.123  42.697  32.083  0.00  0.00    +0.000 OA
BRANCH  20  21
ATOM     21  C15 UNL     1      19.724  42.602  30.792  0.00  0.00    +0.000 C 
BRANCH  21  22
ATOM     22  C16 UNL     1      21.179  42.231  30.898  0.00  0.00    +0.000 C 
ATOM     23  O4  UNL     1      21.917  42.926  31.650  0.00  0.00    +0.000 OA
ATOM     24  N1  UNL     1      21.740  41.111  30.179  0.00  0.00    +0.000 N 
ATOM     25  C17 UNL     1      20.884  40.080  29.567  0.00  0.00    +0.000 C 
ATOM     26  C18 UNL     1      21.539  38.682  29.651  0.00  0.00    +0.000 C 
ATOM     27  C19 UNL     1      22.971  38.724  29.121  0.00  0.00    +0.000 C 
ATOM     28  C20 UNL     1      23.764  39.714  29.972  0.00  0.00    +0.000 C 
ATOM     29  C21 UNL     1      23.166  41.121  29.812  0.00  0.00    +0.000 C 
ATOM     30  C22 UNL     1      23.714  39.309  31.429  0.00  0.00    +0.000 A 
ATOM     31  C23 UNL     1      24.753  39.733  32.274  0.00  0.00    +0.000 A 
ATOM     32  C24 UNL     1      24.689  39.467  33.637  0.00  0.00    +0.000 A 
ATOM     33  C25 UNL     1      23.593  38.788  34.155  0.00  0.00    +0.000 A 
ATOM     34  C26 UNL     1      22.566  38.377  33.301  0.00  0.00    +0.000 A 
ATOM     35  O5  UNL     1      21.590  37.744  33.792  0.00  0.00    +0.000 OA
ATOM     36  N2  UNL     1      22.620  38.651  31.954  0.00  0.00    +0.000 N 
ATOM     37  C27 UNL     1      21.538  38.121  31.089  0.00  0.00    +0.000 C 
ENDBRANCH  21  22
ENDBRANCH  20  21
ENDBRANCH   9  20
TORSDOF 5
ENDMDL
MODEL 10
REMARK VINA RESULT:    -7.505      3.435      9.902
REMARK INTER + INTRA:         -10.643
REMARK INTER:                  -9.529
REMARK INTRA:                  -1.114
REMARK UNBOUND:                -0.945
REMARK  Name = CNP0123550_1.pdb
REMARK  6 active torsions:
REMARK  status: ('A' for Active; 'I' for Inactive)
REMARK    1  A    between atoms: C1_1  and  C2_2
REMARK    2  A    between atoms: C3_3  and  C4_4
REMARK    3  A    between atoms: C4_4  and  C5_5
REMARK    4  A    between atoms: C14_16  and  O3_17
REMARK    5  A    between atoms: O3_17  and  C15_18
REMARK    6  A    between atoms: C15_18  and  C16_19
REMARK                            x       y       z     vdW  Elec       q    Type
REMARK                         _______ _______ _______ _____ _____    ______ ____
ROOT
ATOM      1  C1  UNL     1      26.196  45.135  34.954  0.00  0.00    +0.000 C 
ATOM      2  C2  UNL     1      25.139  45.570  33.957  0.00  0.00    +0.000 A 
ATOM      3  C3  UNL     1      24.756  46.933  33.815  0.00  0.00    +0.000 A 
ATOM      4  C11 UNL     1      23.761  47.250  32.864  0.00  0.00    +0.000 A 
ATOM      5  O1  UNL     1      23.383  48.442  32.701  0.00  0.00    +0.000 OA
ATOM      6  O2  UNL     1      23.199  46.304  32.126  0.00  0.00    +0.000 OA
ATOM      7  C12 UNL     1      23.512  45.022  32.231  0.00  0.00    +0.000 A 
ATOM      8  C13 UNL     1      22.854  44.095  31.417  0.00  0.00    +0.000 A 
ATOM      9  C14 UNL     1      23.144  42.732  31.506  0.00  0.00    +0.000 A 
ATOM     10  C28 UNL     1      24.109  42.296  32.431  0.00  0.00    +0.000 A 
ATOM     11  C29 UNL     1      24.776  43.216  33.245  0.00  0.00    +0.000 A 
ATOM     12  C30 UNL     1      24.491  44.595  33.155  0.00  0.00    +0.000 A 
ENDROOT
BRANCH   3  13
ATOM     13  C4  UNL     1      25.342  48.041  34.678  0.00  0.00    +0.000 C 
BRANCH  13  14
ATOM     14  C5  UNL     1      26.491  48.734  33.986  0.00  0.00    +0.000 A 
ATOM     15  C6  UNL     1      27.620  48.004  33.575  0.00  0.00    +0.000 A 
ATOM     16  C7  UNL     1      28.691  48.649  32.950  0.00  0.00    +0.000 A 
ATOM     17  C8  UNL     1      28.649  50.030  32.738  0.00  0.00    +0.000 A 
ATOM     18  C9  UNL     1      27.538  50.767  33.158  0.00  0.00    +0.000 A 
ATOM     19  C10 UNL     1      26.467  50.126  33.788  0.00  0.00    +0.000 A 
ENDBRANCH  13  14
ENDBRANCH   3  13
BRANCH   9  20
ATOM     20  O3  UNL     1      22.451  41.850  30.662  0.00  0.00    +0.000 OA
BRANCH  20  21
ATOM     21  C15 UNL     1      21.900  40.592  31.054  0.00  0.00    +0.000 C 
BRANCH  21  22
ATOM     22  C16 UNL     1      20.411  40.693  31.252  0.00  0.00    +0.000 C 
ATOM     23  O4  UNL     1      19.658  40.263  30.336  0.00  0.00    +0.000 OA
ATOM     24  N1  UNL     1      19.833  41.254  32.452  0.00  0.00    +0.000 N 
ATOM     25  C17 UNL     1      20.634  41.457  33.672  0.00  0.00    +0.000 C 
ATOM     26  C18 UNL     1      19.792  41.208  34.945  0.00  0.00    +0.000 C 
ATOM     27  C19 UNL     1      18.488  42.001  34.894  0.00  0.00    +0.000 C 
ATOM     28  C20 UNL     1      17.704  41.549  33.664  0.00  0.00    +0.000 C 
ATOM     29  C21 UNL     1      18.504  41.883  32.395  0.00  0.00    +0.000 C 
ATOM     30  C22 UNL     1      17.454  40.057  33.722  0.00  0.00    +0.000 A 
ATOM     31  C23 UNL     1      16.355  39.538  33.019  0.00  0.00    +0.000 A 
ATOM     32  C24 UNL     1      16.153  38.164  32.965  0.00  0.00    +0.000 A 
ATOM     33  C25 UNL     1      17.046  37.312  33.605  0.00  0.00    +0.000 A 
ATOM     34  C26 UNL     1      18.136  37.845  34.297  0.00  0.00    +0.000 A 
ATOM     35  O5  UNL     1      18.923  37.052  34.886  0.00  0.00    +0.000 OA
ATOM     36  N2  UNL     1      18.347  39.204  34.340  0.00  0.00    +0.000 N 
ATOM     37  C27 UNL     1      19.477  39.711  35.154  0.00  0.00    +0.000 C 
ENDBRANCH  21  22
ENDBRANCH  20  21
ENDBRANCH   9  20
TORSDOF 5
ENDMDL
