MODEL 1
REMARK VINA RESULT:    -8.627      0.000      0.000
REMARK INTER + INTRA:         -11.972
REMARK INTER:                 -11.149
REMARK INTRA:                  -0.823
REMARK UNBOUND:                -0.823
REMARK  Name = CNP0067074_2.pdb
REMARK  6 active torsions:
REMARK  status: ('A' for Active; 'I' for Inactive)
REMARK    1  A    between atoms: C1_1  and  O1_2
REMARK    2  A    between atoms: O1_2  and  C2_3
REMARK    3  A    between atoms: C5_6  and  C6_7
REMARK    4  A    between atoms: C6_7  and  N1_8
REMARK    5  A    between atoms: N1_8  and  C7_9
REMARK    6  A    between atoms: C15_18  and  C16_20
REMARK                            x       y       z     vdW  Elec       q    Type
REMARK                         _______ _______ _______ _____ _____    ______ ____
ROOT
ATOM      1  C7  UNL     1      58.875  55.624  68.040  0.00  0.00    +0.000 A 
ATOM      2  C8  UNL     1      57.584  55.097  68.163  0.00  0.00    +0.000 A 
ATOM      3  C9  UNL     1      56.902  55.202  69.369  0.00  0.00    +0.000 A 
ATOM      4  C10 UNL     1      57.499  55.837  70.464  0.00  0.00    +0.000 A 
ATOM      5  C11 UNL     1      56.725  55.888  71.774  0.00  0.00    +0.000 C 
ATOM      6  C12 UNL     1      57.243  57.012  72.665  0.00  0.00    +0.000 C 
ATOM      7  C13 UNL     1      58.750  56.810  72.823  0.00  0.00    +0.000 C 
ATOM      8  C14 UNL     1      59.106  55.382  73.336  0.00  0.00    +0.000 C 
ATOM      9  N2  UNL     1      57.915  54.535  73.517  0.00  0.00    +0.000 N 
ATOM     10  C15 UNL     1      57.952  53.469  74.481  0.00  0.00    +0.000 C 
ATOM     11  O2  UNL     1      57.725  52.288  74.098  0.00  0.00    +0.000 OA
ATOM     12  C26 UNL     1      56.826  54.541  72.526  0.00  0.00    +0.000 C 
ATOM     13  C27 UNL     1      59.413  57.088  71.463  0.00  0.00    +0.000 C 
ATOM     14  N3  UNL     1      58.784  56.335  70.354  0.00  0.00    +0.000 N 
ATOM     15  C28 UNL     1      59.463  56.240  69.162  0.00  0.00    +0.000 A 
ATOM     16  O3  UNL     1      60.626  56.716  69.060  0.00  0.00    +0.000 OA
ENDROOT
BRANCH  10  17
ATOM     17  C16 UNL     1      58.231  53.733  75.914  0.00  0.00    +0.000 A 
ATOM     18  C17 UNL     1      57.215  54.190  76.771  0.00  0.00    +0.000 A 
ATOM     19  C18 UNL     1      57.478  54.432  78.123  0.00  0.00    +0.000 A 
ATOM     20  C19 UNL     1      58.761  54.210  78.642  0.00  0.00    +0.000 A 
ATOM     21  C20 UNL     1      59.036  54.456  79.997  0.00  0.00    +0.000 A 
ATOM     22  C21 UNL     1      60.319  54.233  80.504  0.00  0.00    +0.000 A 
ATOM     23  C22 UNL     1      61.331  53.750  79.669  0.00  0.00    +0.000 A 
ATOM     24  C23 UNL     1      61.070  53.501  78.318  0.00  0.00    +0.000 A 
ATOM     25  C24 UNL     1      59.787  53.731  77.794  0.00  0.00    +0.000 A 
ATOM     26  C25 UNL     1      59.514  53.492  76.439  0.00  0.00    +0.000 A 
ENDBRANCH  10  17
BRANCH   1  27
ATOM     27  N1  UNL     1      59.594  55.562  66.790  0.00  0.00    +0.000 N 
ATOM     28  H8  UNL     1      59.984  56.447  66.393  0.00  0.00    +0.000 HD
BRANCH  27  29
ATOM     29  C6  UNL     1      59.824  54.318  66.048  0.00  0.00    +0.000 C 
BRANCH  29  33
ATOM     30  C2  UNL     1      58.042  54.532  62.116  0.00  0.00    +0.000 A 
ATOM     31  C3  UNL     1      58.851  53.446  62.472  0.00  0.00    +0.000 A 
ATOM     32  C4  UNL     1      59.441  53.383  63.738  0.00  0.00    +0.000 A 
ATOM     33  C5  UNL     1      59.240  54.419  64.663  0.00  0.00    +0.000 A 
ATOM     34  C29 UNL     1      58.416  55.502  64.318  0.00  0.00    +0.000 A 
ATOM     35  C30 UNL     1      57.825  55.563  63.051  0.00  0.00    +0.000 A 
BRANCH  30  37
ATOM     36  C1  UNL     1      56.938  55.705  60.202  0.00  0.00    +0.000 C 
ATOM     37  O1  UNL     1      57.473  54.547  60.833  0.00  0.00    +0.000 OA
ENDBRANCH  30  37
ENDBRANCH  29  33
ENDBRANCH  27  29
ENDBRANCH   1  27
TORSDOF 5
ENDMDL
MODEL 2
REMARK VINA RESULT:    -8.278      1.033      1.755
REMARK INTER + INTRA:         -11.521
REMARK INTER:                 -10.692
REMARK INTRA:                  -0.830
REMARK UNBOUND:                -0.823
REMARK  Name = CNP0067074_2.pdb
REMARK  6 active torsions:
REMARK  status: ('A' for Active; 'I' for Inactive)
REMARK    1  A    between atoms: C1_1  and  O1_2
REMARK    2  A    between atoms: O1_2  and  C2_3
REMARK    3  A    between atoms: C5_6  and  C6_7
REMARK    4  A    between atoms: C6_7  and  N1_8
REMARK    5  A    between atoms: N1_8  and  C7_9
REMARK    6  A    between atoms: C15_18  and  C16_20
REMARK                            x       y       z     vdW  Elec       q    Type
REMARK                         _______ _______ _______ _____ _____    ______ ____
ROOT
ATOM      1  C7  UNL     1      58.478  56.093  68.075  0.00  0.00    +0.000 A 
ATOM      2  C8  UNL     1      57.272  55.444  68.369  0.00  0.00    +0.000 A 
ATOM      3  C9  UNL     1      56.821  55.374  69.681  0.00  0.00    +0.000 A 
ATOM      4  C10 UNL     1      57.566  55.954  70.714  0.00  0.00    +0.000 A 
ATOM      5  C11 UNL     1      57.048  55.813  72.139  0.00  0.00    +0.000 C 
ATOM      6  C12 UNL     1      57.642  56.890  73.041  0.00  0.00    +0.000 C 
ATOM      7  C13 UNL     1      59.163  56.808  72.905  0.00  0.00    +0.000 C 
ATOM      8  C14 UNL     1      59.707  55.376  73.188  0.00  0.00    +0.000 C 
ATOM      9  N2  UNL     1      58.633  54.413  73.486  0.00  0.00    +0.000 N 
ATOM     10  C15 UNL     1      58.923  53.269  74.306  0.00  0.00    +0.000 C 
ATOM     11  O2  UNL     1      58.713  52.113  73.844  0.00  0.00    +0.000 OA
ATOM     12  C26 UNL     1      57.381  54.416  72.711  0.00  0.00    +0.000 C 
ATOM     13  C27 UNL     1      59.540  57.270  71.487  0.00  0.00    +0.000 C 
ATOM     14  N3  UNL     1      58.769  56.572  70.433  0.00  0.00    +0.000 N 
ATOM     15  C28 UNL     1      59.219  56.650  69.136  0.00  0.00    +0.000 A 
ATOM     16  O3  UNL     1      60.307  57.234  68.880  0.00  0.00    +0.000 OA
ENDROOT
BRANCH  10  17
ATOM     17  C16 UNL     1      59.446  53.421  75.687  0.00  0.00    +0.000 A 
ATOM     18  C17 UNL     1      60.807  53.209  75.966  0.00  0.00    +0.000 A 
ATOM     19  C18 UNL     1      61.299  53.360  77.266  0.00  0.00    +0.000 A 
ATOM     20  C19 UNL     1      60.439  53.737  78.306  0.00  0.00    +0.000 A 
ATOM     21  C20 UNL     1      60.923  53.885  79.616  0.00  0.00    +0.000 A 
ATOM     22  C21 UNL     1      60.056  54.259  80.647  0.00  0.00    +0.000 A 
ATOM     23  C22 UNL     1      58.705  54.503  80.375  0.00  0.00    +0.000 A 
ATOM     24  C23 UNL     1      58.211  54.360  79.076  0.00  0.00    +0.000 A 
ATOM     25  C24 UNL     1      59.070  53.973  78.034  0.00  0.00    +0.000 A 
ATOM     26  C25 UNL     1      58.585  53.818  76.726  0.00  0.00    +0.000 A 
ENDBRANCH  10  17
BRANCH   1  27
ATOM     27  N1  UNL     1      58.954  56.212  66.718  0.00  0.00    +0.000 N 
ATOM     28  H8  UNL     1      59.974  56.084  66.534  0.00  0.00    +0.000 HD
BRANCH  27  29
ATOM     29  C6  UNL     1      58.079  56.488  65.574  0.00  0.00    +0.000 C 
BRANCH  29  33
ATOM     30  C2  UNL     1      57.974  53.153  62.828  0.00  0.00    +0.000 A 
ATOM     31  C3  UNL     1      57.987  52.934  64.210  0.00  0.00    +0.000 A 
ATOM     32  C4  UNL     1      58.037  54.012  65.100  0.00  0.00    +0.000 A 
ATOM     33  C5  UNL     1      58.091  55.328  64.615  0.00  0.00    +0.000 A 
ATOM     34  C29 UNL     1      58.059  55.552  63.228  0.00  0.00    +0.000 A 
ATOM     35  C30 UNL     1      58.008  54.473  62.339  0.00  0.00    +0.000 A 
BRANCH  30  37
ATOM     36  C1  UNL     1      57.535  52.084  60.608  0.00  0.00    +0.000 C 
ATOM     37  O1  UNL     1      57.922  52.037  61.977  0.00  0.00    +0.000 OA
ENDBRANCH  30  37
ENDBRANCH  29  33
ENDBRANCH  27  29
ENDBRANCH   1  27
TORSDOF 5
ENDMDL
MODEL 3
REMARK VINA RESULT:    -8.238      2.274      3.631
REMARK INTER + INTRA:         -11.470
REMARK INTER:                 -10.165
REMARK INTRA:                  -1.305
REMARK UNBOUND:                -0.823
REMARK  Name = CNP0067074_2.pdb
REMARK  6 active torsions:
REMARK  status: ('A' for Active; 'I' for Inactive)
REMARK    1  A    between atoms: C1_1  and  O1_2
REMARK    2  A    between atoms: O1_2  and  C2_3
REMARK    3  A    between atoms: C5_6  and  C6_7
REMARK    4  A    between atoms: C6_7  and  N1_8
REMARK    5  A    between atoms: N1_8  and  C7_9
REMARK    6  A    between atoms: C15_18  and  C16_20
REMARK                            x       y       z     vdW  Elec       q    Type
REMARK                         _______ _______ _______ _____ _____    ______ ____
ROOT
ATOM      1  C7  UNL     1      58.844  55.821  67.995  0.00  0.00    +0.000 A 
ATOM      2  C8  UNL     1      57.556  55.295  68.153  0.00  0.00    +0.000 A 
ATOM      3  C9  UNL     1      56.921  55.367  69.387  0.00  0.00    +0.000 A 
ATOM      4  C10 UNL     1      57.564  55.968  70.476  0.00  0.00    +0.000 A 
ATOM      5  C11 UNL     1      56.841  55.984  71.815  0.00  0.00    +0.000 C 
ATOM      6  C12 UNL     1      57.398  57.080  72.718  0.00  0.00    +0.000 C 
ATOM      7  C13 UNL     1      58.909  56.868  72.812  0.00  0.00    +0.000 C 
ATOM      8  C14 UNL     1      59.278  55.425  73.270  0.00  0.00    +0.000 C 
ATOM      9  N2  UNL     1      58.090  54.577  73.472  0.00  0.00    +0.000 N 
ATOM     10  C15 UNL     1      58.159  53.483  74.402  0.00  0.00    +0.000 C 
ATOM     11  O2  UNL     1      57.913  52.314  73.995  0.00  0.00    +0.000 OA
ATOM     12  C26 UNL     1      56.964  54.616  72.524  0.00  0.00    +0.000 C 
ATOM     13  C27 UNL     1      59.521  57.183  71.436  0.00  0.00    +0.000 C 
ATOM     14  N3  UNL     1      58.845  56.464  70.331  0.00  0.00    +0.000 N 
ATOM     15  C28 UNL     1      59.477  56.401  69.111  0.00  0.00    +0.000 A 
ATOM     16  O3  UNL     1      60.638  56.876  68.978  0.00  0.00    +0.000 OA
ENDROOT
BRANCH  10  17
ATOM     17  C16 UNL     1      58.495  53.705  75.831  0.00  0.00    +0.000 A 
ATOM     18  C17 UNL     1      57.514  54.137  76.740  0.00  0.00    +0.000 A 
ATOM     19  C18 UNL     1      57.830  54.339  78.087  0.00  0.00    +0.000 A 
ATOM     20  C19 UNL     1      59.132  54.101  78.549  0.00  0.00    +0.000 A 
ATOM     21  C20 UNL     1      59.460  54.306  79.899  0.00  0.00    +0.000 A 
ATOM     22  C21 UNL     1      60.762  54.068  80.349  0.00  0.00    +0.000 A 
ATOM     23  C22 UNL     1      61.740  53.609  79.460  0.00  0.00    +0.000 A 
ATOM     24  C23 UNL     1      61.425  53.400  78.114  0.00  0.00    +0.000 A 
ATOM     25  C24 UNL     1      60.123  53.646  77.647  0.00  0.00    +0.000 A 
ATOM     26  C25 UNL     1      59.797  53.448  76.297  0.00  0.00    +0.000 A 
ENDBRANCH  10  17
BRANCH   1  27
ATOM     27  N1  UNL     1      59.514  55.792  66.717  0.00  0.00    +0.000 N 
ATOM     28  H8  UNL     1      59.840  56.695  66.303  0.00  0.00    +0.000 HD
BRANCH  27  29
ATOM     29  C6  UNL     1      59.779  54.560  65.969  0.00  0.00    +0.000 C 
BRANCH  29  33
ATOM     30  C2  UNL     1      61.533  51.663  68.656  0.00  0.00    +0.000 A 
ATOM     31  C3  UNL     1      62.205  52.854  68.357  0.00  0.00    +0.000 A 
ATOM     32  C4  UNL     1      61.646  53.785  67.476  0.00  0.00    +0.000 A 
ATOM     33  C5  UNL     1      60.409  53.527  66.867  0.00  0.00    +0.000 A 
ATOM     34  C29 UNL     1      59.722  52.342  67.177  0.00  0.00    +0.000 A 
ATOM     35  C30 UNL     1      60.281  51.412  68.060  0.00  0.00    +0.000 A 
BRANCH  30  37
ATOM     36  C1  UNL     1      61.449  49.713  70.221  0.00  0.00    +0.000 C 
ATOM     37  O1  UNL     1      62.135  50.762  69.547  0.00  0.00    +0.000 OA
ENDBRANCH  30  37
ENDBRANCH  29  33
ENDBRANCH  27  29
ENDBRANCH   1  27
TORSDOF 5
ENDMDL
MODEL 4
REMARK VINA RESULT:    -7.999      5.548      7.411
REMARK INTER + INTRA:         -11.161
REMARK INTER:                 -10.680
REMARK INTRA:                  -0.480
REMARK UNBOUND:                -0.823
REMARK  Name = CNP0067074_2.pdb
REMARK  6 active torsions:
REMARK  status: ('A' for Active; 'I' for Inactive)
REMARK    1  A    between atoms: C1_1  and  O1_2
REMARK    2  A    between atoms: O1_2  and  C2_3
REMARK    3  A    between atoms: C5_6  and  C6_7
REMARK    4  A    between atoms: C6_7  and  N1_8
REMARK    5  A    between atoms: N1_8  and  C7_9
REMARK    6  A    between atoms: C15_18  and  C16_20
REMARK                            x       y       z     vdW  Elec       q    Type
REMARK                         _______ _______ _______ _____ _____    ______ ____
ROOT
ATOM      1  C7  UNL     1      55.146  51.799  67.563  0.00  0.00    +0.000 A 
ATOM      2  C8  UNL     1      55.715  52.331  66.399  0.00  0.00    +0.000 A 
ATOM      3  C9  UNL     1      57.045  52.732  66.395  0.00  0.00    +0.000 A 
ATOM      4  C10 UNL     1      57.824  52.603  67.551  0.00  0.00    +0.000 A 
ATOM      5  C11 UNL     1      59.264  53.095  67.504  0.00  0.00    +0.000 C 
ATOM      6  C12 UNL     1      60.097  52.437  68.599  0.00  0.00    +0.000 C 
ATOM      7  C13 UNL     1      59.381  52.685  69.928  0.00  0.00    +0.000 C 
ATOM      8  C14 UNL     1      59.096  54.197  70.174  0.00  0.00    +0.000 C 
ATOM      9  N2  UNL     1      59.546  55.045  69.056  0.00  0.00    +0.000 N 
ATOM     10  C15 UNL     1      59.905  56.413  69.313  0.00  0.00    +0.000 C 
ATOM     11  O2  UNL     1      59.302  57.332  68.694  0.00  0.00    +0.000 OA
ATOM     12  C26 UNL     1      59.326  54.632  67.660  0.00  0.00    +0.000 C 
ATOM     13  C27 UNL     1      58.075  51.872  69.924  0.00  0.00    +0.000 C 
ATOM     14  N3  UNL     1      57.260  52.103  68.709  0.00  0.00    +0.000 N 
ATOM     15  C28 UNL     1      55.945  51.699  68.719  0.00  0.00    +0.000 A 
ATOM     16  O3  UNL     1      55.441  51.223  69.772  0.00  0.00    +0.000 OA
ENDROOT
BRANCH  10  17
ATOM     17  C16 UNL     1      60.980  56.761  70.275  0.00  0.00    +0.000 A 
ATOM     18  C17 UNL     1      61.267  58.103  70.575  0.00  0.00    +0.000 A 
ATOM     19  C18 UNL     1      62.276  58.430  71.487  0.00  0.00    +0.000 A 
ATOM     20  C19 UNL     1      63.006  57.416  72.123  0.00  0.00    +0.000 A 
ATOM     21  C20 UNL     1      64.024  57.735  73.036  0.00  0.00    +0.000 A 
ATOM     22  C21 UNL     1      64.747  56.716  73.664  0.00  0.00    +0.000 A 
ATOM     23  C22 UNL     1      64.450  55.376  73.397  0.00  0.00    +0.000 A 
ATOM     24  C23 UNL     1      63.438  55.046  72.491  0.00  0.00    +0.000 A 
ATOM     25  C24 UNL     1      62.711  56.060  71.845  0.00  0.00    +0.000 A 
ATOM     26  C25 UNL     1      61.699  55.743  70.928  0.00  0.00    +0.000 A 
ENDBRANCH  10  17
BRANCH   1  27
ATOM     27  N1  UNL     1      53.778  51.341  67.587  0.00  0.00    +0.000 N 
ATOM     28  H8  UNL     1      53.068  51.915  68.097  0.00  0.00    +0.000 HD
BRANCH  27  29
ATOM     29  C6  UNL     1      53.321  50.119  66.920  0.00  0.00    +0.000 C 
BRANCH  29  33
ATOM     30  C2  UNL     1      49.548  50.830  64.934  0.00  0.00    +0.000 A 
ATOM     31  C3  UNL     1      50.155  51.840  65.689  0.00  0.00    +0.000 A 
ATOM     32  C4  UNL     1      51.367  51.607  66.345  0.00  0.00    +0.000 A 
ATOM     33  C5  UNL     1      51.983  50.348  66.266  0.00  0.00    +0.000 A 
ATOM     34  C29 UNL     1      51.387  49.337  65.495  0.00  0.00    +0.000 A 
ATOM     35  C30 UNL     1      50.174  49.572  64.838  0.00  0.00    +0.000 A 
BRANCH  30  37
ATOM     36  C1  UNL     1      47.161  50.311  64.392  0.00  0.00    +0.000 C 
ATOM     37  O1  UNL     1      48.331  51.115  64.294  0.00  0.00    +0.000 OA
ENDBRANCH  30  37
ENDBRANCH  29  33
ENDBRANCH  27  29
ENDBRANCH   1  27
TORSDOF 5
ENDMDL
MODEL 5
REMARK VINA RESULT:    -7.873      5.095      6.478
REMARK INTER + INTRA:         -10.998
REMARK INTER:                 -10.149
REMARK INTRA:                  -0.848
REMARK UNBOUND:                -0.823
REMARK  Name = CNP0067074_2.pdb
REMARK  6 active torsions:
REMARK  status: ('A' for Active; 'I' for Inactive)
REMARK    1  A    between atoms: C1_1  and  O1_2
REMARK    2  A    between atoms: O1_2  and  C2_3
REMARK    3  A    between atoms: C5_6  and  C6_7
REMARK    4  A    between atoms: C6_7  and  N1_8
REMARK    5  A    between atoms: N1_8  and  C7_9
REMARK    6  A    between atoms: C15_18  and  C16_20
REMARK                            x       y       z     vdW  Elec       q    Type
REMARK                         _______ _______ _______ _____ _____    ______ ____
ROOT
ATOM      1  C7  UNL     1      55.591  52.076  66.598  0.00  0.00    +0.000 A 
ATOM      2  C8  UNL     1      54.842  52.337  67.751  0.00  0.00    +0.000 A 
ATOM      3  C9  UNL     1      55.322  53.223  68.708  0.00  0.00    +0.000 A 
ATOM      4  C10 UNL     1      56.554  53.861  68.522  0.00  0.00    +0.000 A 
ATOM      5  C11 UNL     1      57.054  54.790  69.620  0.00  0.00    +0.000 C 
ATOM      6  C12 UNL     1      58.087  55.768  69.073  0.00  0.00    +0.000 C 
ATOM      7  C13 UNL     1      59.179  54.943  68.391  0.00  0.00    +0.000 C 
ATOM      8  C14 UNL     1      59.776  53.856  69.334  0.00  0.00    +0.000 C 
ATOM      9  N2  UNL     1      59.130  53.842  70.658  0.00  0.00    +0.000 N 
ATOM     10  C15 UNL     1      59.871  53.368  71.795  0.00  0.00    +0.000 C 
ATOM     11  O2  UNL     1      59.413  52.404  72.468  0.00  0.00    +0.000 OA
ATOM     12  C26 UNL     1      57.670  53.984  70.787  0.00  0.00    +0.000 C 
ATOM     13  C27 UNL     1      58.575  54.305  67.128  0.00  0.00    +0.000 C 
ATOM     14  N3  UNL     1      57.310  53.585  67.399  0.00  0.00    +0.000 N 
ATOM     15  C28 UNL     1      56.838  52.714  66.445  0.00  0.00    +0.000 A 
ATOM     16  O3  UNL     1      57.521  52.483  65.410  0.00  0.00    +0.000 OA
ENDROOT
BRANCH  10  17
ATOM     17  C16 UNL     1      61.149  54.003  72.202  0.00  0.00    +0.000 A 
ATOM     18  C17 UNL     1      62.234  53.220  72.633  0.00  0.00    +0.000 A 
ATOM     19  C18 UNL     1      63.440  53.818  73.009  0.00  0.00    +0.000 A 
ATOM     20  C19 UNL     1      63.585  55.211  72.949  0.00  0.00    +0.000 A 
ATOM     21  C20 UNL     1      64.790  55.821  73.331  0.00  0.00    +0.000 A 
ATOM     22  C21 UNL     1      64.923  57.212  73.269  0.00  0.00    +0.000 A 
ATOM     23  C22 UNL     1      63.862  58.000  72.812  0.00  0.00    +0.000 A 
ATOM     24  C23 UNL     1      62.656  57.404  72.429  0.00  0.00    +0.000 A 
ATOM     25  C24 UNL     1      62.507  56.009  72.497  0.00  0.00    +0.000 A 
ATOM     26  C25 UNL     1      61.300  55.399  72.123  0.00  0.00    +0.000 A 
ENDBRANCH  10  17
BRANCH   1  27
ATOM     27  N1  UNL     1      55.102  51.189  65.571  0.00  0.00    +0.000 N 
ATOM     28  H8  UNL     1      55.502  51.269  64.609  0.00  0.00    +0.000 HD
BRANCH  27  29
ATOM     29  C6  UNL     1      54.081  50.163  65.805  0.00  0.00    +0.000 C 
BRANCH  29  33
ATOM     30  C2  UNL     1      50.223  51.782  64.718  0.00  0.00    +0.000 A 
ATOM     31  C3  UNL     1      50.565  51.604  66.064  0.00  0.00    +0.000 A 
ATOM     32  C4  UNL     1      51.807  51.066  66.417  0.00  0.00    +0.000 A 
ATOM     33  C5  UNL     1      52.720  50.682  65.422  0.00  0.00    +0.000 A 
ATOM     34  C29 UNL     1      52.388  50.875  64.071  0.00  0.00    +0.000 A 
ATOM     35  C30 UNL     1      51.146  51.415  63.719  0.00  0.00    +0.000 A 
BRANCH  30  37
ATOM     36  C1  UNL     1      47.766  52.026  65.119  0.00  0.00    +0.000 C 
ATOM     37  O1  UNL     1      48.966  52.327  64.416  0.00  0.00    +0.000 OA
ENDBRANCH  30  37
ENDBRANCH  29  33
ENDBRANCH  27  29
ENDBRANCH   1  27
TORSDOF 5
ENDMDL
MODEL 6
REMARK VINA RESULT:    -7.868      1.967      2.734
REMARK INTER + INTRA:         -10.991
REMARK INTER:                 -10.547
REMARK INTRA:                  -0.445
REMARK UNBOUND:                -0.823
REMARK  Name = CNP0067074_2.pdb
REMARK  6 active torsions:
REMARK  status: ('A' for Active; 'I' for Inactive)
REMARK    1  A    between atoms: C1_1  and  O1_2
REMARK    2  A    between atoms: O1_2  and  C2_3
REMARK    3  A    between atoms: C5_6  and  C6_7
REMARK    4  A    between atoms: C6_7  and  N1_8
REMARK    5  A    between atoms: N1_8  and  C7_9
REMARK    6  A    between atoms: C15_18  and  C16_20
REMARK                            x       y       z     vdW  Elec       q    Type
REMARK                         _______ _______ _______ _____ _____    ______ ____
ROOT
ATOM      1  C7  UNL     1      59.251  56.874  67.719  0.00  0.00    +0.000 A 
ATOM      2  C8  UNL     1      58.067  57.303  68.330  0.00  0.00    +0.000 A 
ATOM      3  C9  UNL     1      58.028  57.509  69.704  0.00  0.00    +0.000 A 
ATOM      4  C10 UNL     1      59.171  57.293  70.482  0.00  0.00    +0.000 A 
ATOM      5  C11 UNL     1      59.063  57.494  71.987  0.00  0.00    +0.000 C 
ATOM      6  C12 UNL     1      60.438  57.732  72.602  0.00  0.00    +0.000 C 
ATOM      7  C13 UNL     1      61.335  56.569  72.177  0.00  0.00    +0.000 C 
ATOM      8  C14 UNL     1      60.716  55.184  72.532  0.00  0.00    +0.000 C 
ATOM      9  N2  UNL     1      59.390  55.303  73.162  0.00  0.00    +0.000 N 
ATOM     10  C15 UNL     1      58.940  54.267  74.051  0.00  0.00    +0.000 C 
ATOM     11  O2  UNL     1      57.859  53.667  73.796  0.00  0.00    +0.000 OA
ATOM     12  C26 UNL     1      58.400  56.270  72.660  0.00  0.00    +0.000 C 
ATOM     13  C27 UNL     1      61.585  56.689  70.664  0.00  0.00    +0.000 C 
ATOM     14  N3  UNL     1      60.335  56.844  69.886  0.00  0.00    +0.000 N 
ATOM     15  C28 UNL     1      60.382  56.644  68.527  0.00  0.00    +0.000 A 
ATOM     16  O3  UNL     1      61.453  56.256  67.984  0.00  0.00    +0.000 OA
ENDROOT
BRANCH  10  17
ATOM     17  C16 UNL     1      59.710  53.905  75.267  0.00  0.00    +0.000 A 
ATOM     18  C17 UNL     1      59.065  53.757  76.507  0.00  0.00    +0.000 A 
ATOM     19  C18 UNL     1      59.790  53.409  77.650  0.00  0.00    +0.000 A 
ATOM     20  C19 UNL     1      61.172  53.191  77.569  0.00  0.00    +0.000 A 
ATOM     21  C20 UNL     1      61.910  52.847  78.714  0.00  0.00    +0.000 A 
ATOM     22  C21 UNL     1      63.288  52.635  78.622  0.00  0.00    +0.000 A 
ATOM     23  C22 UNL     1      63.937  52.748  77.388  0.00  0.00    +0.000 A 
ATOM     24  C23 UNL     1      63.213  53.090  76.241  0.00  0.00    +0.000 A 
ATOM     25  C24 UNL     1      61.830  53.317  76.323  0.00  0.00    +0.000 A 
ATOM     26  C25 UNL     1      61.093  53.668  75.181  0.00  0.00    +0.000 A 
ENDBRANCH  10  17
BRANCH   1  27
ATOM     27  N1  UNL     1      59.332  56.686  66.290  0.00  0.00    +0.000 N 
ATOM     28  H8  UNL     1      60.276  56.668  65.841  0.00  0.00    +0.000 HD
BRANCH  27  29
ATOM     29  C6  UNL     1      58.159  56.502  65.430  0.00  0.00    +0.000 C 
BRANCH  29  33
ATOM     30  C2  UNL     1      57.493  52.340  64.470  0.00  0.00    +0.000 A 
ATOM     31  C3  UNL     1      57.267  52.815  65.767  0.00  0.00    +0.000 A 
ATOM     32  C4  UNL     1      57.497  54.158  66.083  0.00  0.00    +0.000 A 
ATOM     33  C5  UNL     1      57.974  55.043  65.104  0.00  0.00    +0.000 A 
ATOM     34  C29 UNL     1      58.185  54.575  63.797  0.00  0.00    +0.000 A 
ATOM     35  C30 UNL     1      57.953  53.232  63.482  0.00  0.00    +0.000 A 
BRANCH  30  37
ATOM     36  C1  UNL     1      57.844  50.249  63.142  0.00  0.00    +0.000 C 
ATOM     37  O1  UNL     1      57.246  50.984  64.204  0.00  0.00    +0.000 OA
ENDBRANCH  30  37
ENDBRANCH  29  33
ENDBRANCH  27  29
ENDBRANCH   1  27
TORSDOF 5
ENDMDL
MODEL 7
REMARK VINA RESULT:    -7.861      6.114      8.724
REMARK INTER + INTRA:         -10.982
REMARK INTER:                 -10.255
REMARK INTRA:                  -0.727
REMARK UNBOUND:                -0.823
REMARK  Name = CNP0067074_2.pdb
REMARK  6 active torsions:
REMARK  status: ('A' for Active; 'I' for Inactive)
REMARK    1  A    between atoms: C1_1  and  O1_2
REMARK    2  A    between atoms: O1_2  and  C2_3
REMARK    3  A    between atoms: C5_6  and  C6_7
REMARK    4  A    between atoms: C6_7  and  N1_8
REMARK    5  A    between atoms: N1_8  and  C7_9
REMARK    6  A    between atoms: C15_18  and  C16_20
REMARK                            x       y       z     vdW  Elec       q    Type
REMARK                         _______ _______ _______ _____ _____    ______ ____
ROOT
ATOM      1  C7  UNL     1      54.273  50.889  65.686  0.00  0.00    +0.000 A 
ATOM      2  C8  UNL     1      55.242  50.990  64.680  0.00  0.00    +0.000 A 
ATOM      3  C9  UNL     1      56.509  51.473  64.981  0.00  0.00    +0.000 A 
ATOM      4  C10 UNL     1      56.824  51.858  66.289  0.00  0.00    +0.000 A 
ATOM      5  C11 UNL     1      58.214  52.419  66.557  0.00  0.00    +0.000 C 
ATOM      6  C12 UNL     1      58.572  52.297  68.034  0.00  0.00    +0.000 C 
ATOM      7  C13 UNL     1      57.451  52.965  68.831  0.00  0.00    +0.000 C 
ATOM      8  C14 UNL     1      57.183  54.428  68.365  0.00  0.00    +0.000 C 
ATOM      9  N2  UNL     1      58.042  54.826  67.237  0.00  0.00    +0.000 N 
ATOM     10  C15 UNL     1      58.364  56.215  67.056  0.00  0.00    +0.000 C 
ATOM     11  O2  UNL     1      58.069  56.777  65.965  0.00  0.00    +0.000 OA
ATOM     12  C26 UNL     1      58.303  53.900  66.122  0.00  0.00    +0.000 C 
ATOM     13  C27 UNL     1      56.186  52.101  68.690  0.00  0.00    +0.000 C 
ATOM     14  N3  UNL     1      55.863  51.785  67.279  0.00  0.00    +0.000 N 
ATOM     15  C28 UNL     1      54.608  51.302  66.990  0.00  0.00    +0.000 A 
ATOM     16  O3  UNL     1      53.741  51.217  67.901  0.00  0.00    +0.000 OA
ENDROOT
BRANCH  10  17
ATOM     17  C16 UNL     1      59.051  56.993  68.118  0.00  0.00    +0.000 A 
ATOM     18  C17 UNL     1      58.631  58.295  68.440  0.00  0.00    +0.000 A 
ATOM     19  C18 UNL     1      59.274  59.023  69.444  0.00  0.00    +0.000 A 
ATOM     20  C19 UNL     1      60.342  58.456  70.153  0.00  0.00    +0.000 A 
ATOM     21  C20 UNL     1      60.998  59.182  71.160  0.00  0.00    +0.000 A 
ATOM     22  C21 UNL     1      62.063  58.608  71.859  0.00  0.00    +0.000 A 
ATOM     23  C22 UNL     1      62.471  57.301  71.569  0.00  0.00    +0.000 A 
ATOM     24  C23 UNL     1      61.826  56.568  70.569  0.00  0.00    +0.000 A 
ATOM     25  C24 UNL     1      60.761  57.138  69.852  0.00  0.00    +0.000 A 
ATOM     26  C25 UNL     1      60.110  56.415  68.841  0.00  0.00    +0.000 A 
ENDBRANCH  10  17
BRANCH   1  27
ATOM     27  N1  UNL     1      52.959  50.358  65.411  0.00  0.00    +0.000 N 
ATOM     28  H8  UNL     1      52.502  49.756  66.133  0.00  0.00    +0.000 HD
BRANCH  27  29
ATOM     29  C6  UNL     1      52.218  50.629  64.175  0.00  0.00    +0.000 C 
BRANCH  29  33
ATOM     30  C2  UNL     1      48.003  49.942  64.843  0.00  0.00    +0.000 A 
ATOM     31  C3  UNL     1      48.962  49.299  65.634  0.00  0.00    +0.000 A 
ATOM     32  C4  UNL     1      50.326  49.508  65.410  0.00  0.00    +0.000 A 
ATOM     33  C5  UNL     1      50.750  50.355  64.374  0.00  0.00    +0.000 A 
ATOM     34  C29 UNL     1      49.792  51.016  63.588  0.00  0.00    +0.000 A 
ATOM     35  C30 UNL     1      48.427  50.808  63.816  0.00  0.00    +0.000 A 
BRANCH  30  37
ATOM     36  C1  UNL     1      46.048  49.797  66.397  0.00  0.00    +0.000 C 
ATOM     37  O1  UNL     1      46.647  49.700  65.109  0.00  0.00    +0.000 OA
ENDBRANCH  30  37
ENDBRANCH  29  33
ENDBRANCH  27  29
ENDBRANCH   1  27
TORSDOF 5
ENDMDL
MODEL 8
REMARK VINA RESULT:    -7.788      4.057     10.134
REMARK INTER + INTRA:         -10.887
REMARK INTER:                  -9.500
REMARK INTRA:                  -1.388
REMARK UNBOUND:                -0.823
REMARK  Name = CNP0067074_2.pdb
REMARK  6 active torsions:
REMARK  status: ('A' for Active; 'I' for Inactive)
REMARK    1  A    between atoms: C1_1  and  O1_2
REMARK    2  A    between atoms: O1_2  and  C2_3
REMARK    3  A    between atoms: C5_6  and  C6_7
REMARK    4  A    between atoms: C6_7  and  N1_8
REMARK    5  A    between atoms: N1_8  and  C7_9
REMARK    6  A    between atoms: C15_18  and  C16_20
REMARK                            x       y       z     vdW  Elec       q    Type
REMARK                         _______ _______ _______ _____ _____    ______ ____
ROOT
ATOM      1  C7  UNL     1      60.843  56.083  70.000  0.00  0.00    +0.000 A 
ATOM      2  C8  UNL     1      61.401  54.799  70.007  0.00  0.00    +0.000 A 
ATOM      3  C9  UNL     1      61.005  53.862  69.061  0.00  0.00    +0.000 A 
ATOM      4  C10 UNL     1      60.049  54.198  68.094  0.00  0.00    +0.000 A 
ATOM      5  C11 UNL     1      59.619  53.122  67.106  0.00  0.00    +0.000 C 
ATOM      6  C12 UNL     1      59.012  53.748  65.855  0.00  0.00    +0.000 C 
ATOM      7  C13 UNL     1      57.889  54.680  66.310  0.00  0.00    +0.000 C 
ATOM      8  C14 UNL     1      56.852  53.957  67.221  0.00  0.00    +0.000 C 
ATOM      9  N2  UNL     1      57.206  52.549  67.471  0.00  0.00    +0.000 N 
ATOM     10  C15 UNL     1      56.162  51.604  67.760  0.00  0.00    +0.000 C 
ATOM     11  O2  UNL     1      56.206  50.953  68.841  0.00  0.00    +0.000 OA
ATOM     12  C26 UNL     1      58.598  52.158  67.751  0.00  0.00    +0.000 C 
ATOM     13  C27 UNL     1      58.527  55.873  67.042  0.00  0.00    +0.000 C 
ATOM     14  N3  UNL     1      59.476  55.455  68.100  0.00  0.00    +0.000 N 
ATOM     15  C28 UNL     1      59.868  56.389  69.030  0.00  0.00    +0.000 A 
ATOM     16  O3  UNL     1      59.359  57.543  69.018  0.00  0.00    +0.000 OA
ENDROOT
BRANCH  10  17
ATOM     17  C16 UNL     1      55.050  51.367  66.807  0.00  0.00    +0.000 A 
ATOM     18  C17 UNL     1      55.302  50.858  65.521  0.00  0.00    +0.000 A 
ATOM     19  C18 UNL     1      54.253  50.629  64.627  0.00  0.00    +0.000 A 
ATOM     20  C19 UNL     1      52.930  50.894  65.009  0.00  0.00    +0.000 A 
ATOM     21  C20 UNL     1      51.870  50.672  64.115  0.00  0.00    +0.000 A 
ATOM     22  C21 UNL     1      50.555  50.942  64.506  0.00  0.00    +0.000 A 
ATOM     23  C22 UNL     1      50.288  51.419  65.794  0.00  0.00    +0.000 A 
ATOM     24  C23 UNL     1      51.335  51.643  66.692  0.00  0.00    +0.000 A 
ATOM     25  C24 UNL     1      52.661  51.386  66.308  0.00  0.00    +0.000 A 
ATOM     26  C25 UNL     1      53.722  51.615  67.198  0.00  0.00    +0.000 A 
ENDBRANCH  10  17
BRANCH   1  27
ATOM     27  N1  UNL     1      61.261  57.088  70.948  0.00  0.00    +0.000 N 
ATOM     28  H8  UNL     1      61.637  57.992  70.584  0.00  0.00    +0.000 HD
BRANCH  27  29
ATOM     29  C6  UNL     1      61.173  56.916  72.402  0.00  0.00    +0.000 C 
BRANCH  29  33
ATOM     30  C2  UNL     1      57.147  55.701  73.403  0.00  0.00    +0.000 A 
ATOM     31  C3  UNL     1      57.402  56.992  72.925  0.00  0.00    +0.000 A 
ATOM     32  C4  UNL     1      58.705  57.392  72.615  0.00  0.00    +0.000 A 
ATOM     33  C5  UNL     1      59.778  56.505  72.796  0.00  0.00    +0.000 A 
ATOM     34  C29 UNL     1      59.526  55.203  73.259  0.00  0.00    +0.000 A 
ATOM     35  C30 UNL     1      58.221  54.804  73.567  0.00  0.00    +0.000 A 
BRANCH  30  37
ATOM     36  C1  UNL     1      55.312  54.020  73.659  0.00  0.00    +0.000 C 
ATOM     37  O1  UNL     1      55.821  55.348  73.699  0.00  0.00    +0.000 OA
ENDBRANCH  30  37
ENDBRANCH  29  33
ENDBRANCH  27  29
ENDBRANCH   1  27
TORSDOF 5
ENDMDL
MODEL 9
REMARK VINA RESULT:    -7.679      5.632      8.064
REMARK INTER + INTRA:         -10.746
REMARK INTER:                  -9.760
REMARK INTRA:                  -0.986
REMARK UNBOUND:                -0.823
REMARK  Name = CNP0067074_2.pdb
REMARK  6 active torsions:
REMARK  status: ('A' for Active; 'I' for Inactive)
REMARK    1  A    between atoms: C1_1  and  O1_2
REMARK    2  A    between atoms: O1_2  and  C2_3
REMARK    3  A    between atoms: C5_6  and  C6_7
REMARK    4  A    between atoms: C6_7  and  N1_8
REMARK    5  A    between atoms: N1_8  and  C7_9
REMARK    6  A    between atoms: C15_18  and  C16_20
REMARK                            x       y       z     vdW  Elec       q    Type
REMARK                         _______ _______ _______ _____ _____    ______ ____
ROOT
ATOM      1  C7  UNL     1      54.630  50.144  65.939  0.00  0.00    +0.000 A 
ATOM      2  C8  UNL     1      55.457  50.403  64.840  0.00  0.00    +0.000 A 
ATOM      3  C9  UNL     1      56.668  51.061  65.019  0.00  0.00    +0.000 A 
ATOM      4  C10 UNL     1      57.067  51.466  66.298  0.00  0.00    +0.000 A 
ATOM      5  C11 UNL     1      58.383  52.220  66.433  0.00  0.00    +0.000 C 
ATOM      6  C12 UNL     1      58.915  52.128  67.859  0.00  0.00    +0.000 C 
ATOM      7  C13 UNL     1      57.805  52.610  68.793  0.00  0.00    +0.000 C 
ATOM      8  C14 UNL     1      57.279  54.025  68.406  0.00  0.00    +0.000 C 
ATOM      9  N2  UNL     1      57.942  54.564  67.206  0.00  0.00    +0.000 N 
ATOM     10  C15 UNL     1      58.039  55.989  67.038  0.00  0.00    +0.000 C 
ATOM     11  O2  UNL     1      57.547  56.520  66.004  0.00  0.00    +0.000 OA
ATOM     12  C26 UNL     1      58.209  53.705  66.040  0.00  0.00    +0.000 C 
ATOM     13  C27 UNL     1      56.670  51.573  68.759  0.00  0.00    +0.000 C 
ATOM     14  N3  UNL     1      56.241  51.236  67.382  0.00  0.00    +0.000 N 
ATOM     15  C28 UNL     1      55.045  50.580  67.213  0.00  0.00    +0.000 A 
ATOM     16  O3  UNL     1      54.305  50.353  68.208  0.00  0.00    +0.000 OA
ENDROOT
BRANCH  10  17
ATOM     17  C16 UNL     1      58.720  56.840  68.045  0.00  0.00    +0.000 A 
ATOM     18  C17 UNL     1      58.181  58.084  68.415  0.00  0.00    +0.000 A 
ATOM     19  C18 UNL     1      58.819  58.882  69.369  0.00  0.00    +0.000 A 
ATOM     20  C19 UNL     1      60.004  58.443  69.977  0.00  0.00    +0.000 A 
ATOM     21  C20 UNL     1      60.655  59.240  70.932  0.00  0.00    +0.000 A 
ATOM     22  C21 UNL     1      61.837  58.793  71.530  0.00  0.00    +0.000 A 
ATOM     23  C22 UNL     1      62.367  57.544  71.193  0.00  0.00    +0.000 A 
ATOM     24  C23 UNL     1      61.727  56.740  70.244  0.00  0.00    +0.000 A 
ATOM     25  C24 UNL     1      60.545  57.183  69.628  0.00  0.00    +0.000 A 
ATOM     26  C25 UNL     1      59.898  56.390  68.668  0.00  0.00    +0.000 A 
ENDBRANCH  10  17
BRANCH   1  27
ATOM     27  N1  UNL     1      53.384  49.431  65.789  0.00  0.00    +0.000 N 
ATOM     28  H8  UNL     1      53.002  48.913  66.613  0.00  0.00    +0.000 HD
BRANCH  27  29
ATOM     29  C6  UNL     1      52.611  49.404  64.543  0.00  0.00    +0.000 C 
BRANCH  29  33
ATOM     30  C2  UNL     1      50.404  53.100  64.164  0.00  0.00    +0.000 A 
ATOM     31  C3  UNL     1      50.576  52.501  65.418  0.00  0.00    +0.000 A 
ATOM     32  C4  UNL     1      51.277  51.297  65.540  0.00  0.00    +0.000 A 
ATOM     33  C5  UNL     1      51.803  50.666  64.402  0.00  0.00    +0.000 A 
ATOM     34  C29 UNL     1      51.648  51.273  63.145  0.00  0.00    +0.000 A 
ATOM     35  C30 UNL     1      50.949  52.479  63.024  0.00  0.00    +0.000 A 
BRANCH  30  37
ATOM     36  C1  UNL     1      49.871  55.291  63.080  0.00  0.00    +0.000 C 
ATOM     37  O1  UNL     1      49.694  54.309  64.095  0.00  0.00    +0.000 OA
ENDBRANCH  30  37
ENDBRANCH  29  33
ENDBRANCH  27  29
ENDBRANCH   1  27
TORSDOF 5
ENDMDL
MODEL 10
REMARK VINA RESULT:    -7.662      2.833     12.139
REMARK INTER + INTRA:         -10.725
REMARK INTER:                  -9.971
REMARK INTRA:                  -0.754
REMARK UNBOUND:                -0.823
REMARK  Name = CNP0067074_2.pdb
REMARK  6 active torsions:
REMARK  status: ('A' for Active; 'I' for Inactive)
REMARK    1  A    between atoms: C1_1  and  O1_2
REMARK    2  A    between atoms: O1_2  and  C2_3
REMARK    3  A    between atoms: C5_6  and  C6_7
REMARK    4  A    between atoms: C6_7  and  N1_8
REMARK    5  A    between atoms: N1_8  and  C7_9
REMARK    6  A    between atoms: C15_18  and  C16_20
REMARK                            x       y       z     vdW  Elec       q    Type
REMARK                         _______ _______ _______ _____ _____    ______ ____
ROOT
ATOM      1  C7  UNL     1      61.939  53.210  75.763  0.00  0.00    +0.000 A 
ATOM      2  C8  UNL     1      63.220  53.456  75.255  0.00  0.00    +0.000 A 
ATOM      3  C9  UNL     1      63.382  54.267  74.139  0.00  0.00    +0.000 A 
ATOM      4  C10 UNL     1      62.267  54.844  73.519  0.00  0.00    +0.000 A 
ATOM      5  C11 UNL     1      62.496  55.691  72.275  0.00  0.00    +0.000 C 
ATOM      6  C12 UNL     1      61.323  56.636  72.039  0.00  0.00    +0.000 C 
ATOM      7  C13 UNL     1      60.052  55.785  72.006  0.00  0.00    +0.000 C 
ATOM      8  C14 UNL     1      60.144  54.623  70.973  0.00  0.00    +0.000 C 
ATOM      9  N2  UNL     1      61.447  54.580  70.287  0.00  0.00    +0.000 N 
ATOM     10  C15 UNL     1      61.527  54.013  68.968  0.00  0.00    +0.000 C 
ATOM     11  O2  UNL     1      62.310  53.044  68.764  0.00  0.00    +0.000 OA
ATOM     12  C26 UNL     1      62.699  54.797  71.030  0.00  0.00    +0.000 C 
ATOM     13  C27 UNL     1      59.805  55.243  73.425  0.00  0.00    +0.000 C 
ATOM     14  N3  UNL     1      60.999  54.582  74.001  0.00  0.00    +0.000 N 
ATOM     15  C28 UNL     1      60.832  53.785  75.109  0.00  0.00    +0.000 A 
ATOM     16  O3  UNL     1      59.674  53.566  75.559  0.00  0.00    +0.000 OA
ENDROOT
BRANCH  10  17
ATOM     17  C16 UNL     1      60.724  54.556  67.844  0.00  0.00    +0.000 A 
ATOM     18  C17 UNL     1      60.443  55.930  67.762  0.00  0.00    +0.000 A 
ATOM     19  C18 UNL     1      59.692  56.442  66.699  0.00  0.00    +0.000 A 
ATOM     20  C19 UNL     1      59.221  55.586  65.693  0.00  0.00    +0.000 A 
ATOM     21  C20 UNL     1      58.461  56.090  64.625  0.00  0.00    +0.000 A 
ATOM     22  C21 UNL     1      57.994  55.228  63.629  0.00  0.00    +0.000 A 
ATOM     23  C22 UNL     1      58.294  53.863  63.683  0.00  0.00    +0.000 A 
ATOM     24  C23 UNL     1      59.050  53.349  64.741  0.00  0.00    +0.000 A 
ATOM     25  C24 UNL     1      59.515  54.204  65.754  0.00  0.00    +0.000 A 
ATOM     26  C25 UNL     1      60.268  53.700  66.826  0.00  0.00    +0.000 A 
ENDBRANCH  10  17
BRANCH   1  27
ATOM     27  N1  UNL     1      61.743  52.401  76.943  0.00  0.00    +0.000 N 
ATOM     28  H8  UNL     1      61.055  51.615  76.901  0.00  0.00    +0.000 HD
BRANCH  27  29
ATOM     29  C6  UNL     1      62.470  52.610  78.198  0.00  0.00    +0.000 C 
BRANCH  29  33
ATOM     30  C2  UNL     1      59.936  54.605  81.076  0.00  0.00    +0.000 A 
ATOM     31  C3  UNL     1      59.458  54.307  79.795  0.00  0.00    +0.000 A 
ATOM     32  C4  UNL     1      60.282  53.676  78.857  0.00  0.00    +0.000 A 
ATOM     33  C5  UNL     1      61.605  53.347  79.187  0.00  0.00    +0.000 A 
ATOM     34  C29 UNL     1      62.084  53.628  80.477  0.00  0.00    +0.000 A 
ATOM     35  C30 UNL     1      61.258  54.259  81.415  0.00  0.00    +0.000 A 
BRANCH  30  37
ATOM     36  C1  UNL     1      59.143  55.107  83.396  0.00  0.00    +0.000 C 
ATOM     37  O1  UNL     1      59.070  55.239  81.980  0.00  0.00    +0.000 OA
ENDBRANCH  30  37
ENDBRANCH  29  33
ENDBRANCH  27  29
ENDBRANCH   1  27
TORSDOF 5
ENDMDL
