MODEL 1
REMARK VINA RESULT:    -8.036      0.000      0.000
REMARK INTER + INTRA:         -10.555
REMARK INTER:                  -9.915
REMARK INTRA:                  -0.640
REMARK UNBOUND:                -0.640
REMARK  Name = CNP0606747_0.pdb
REMARK  6 active torsions:
REMARK  status: ('A' for Active; 'I' for Inactive)
REMARK    1  A    between atoms: C1_1  and  N1_2
REMARK    2  A    between atoms: N3_9  and  C6_10
REMARK    3  A    between atoms: C6_10  and  C7_11
REMARK    4  A    between atoms: N4_20  and  C14_21
REMARK    5  A    between atoms: C14_21  and  C15_22
REMARK    6  A    between atoms: N5_32  and  C25_33
REMARK                            x       y       z     vdW  Elec       q    Type
REMARK                         _______ _______ _______ _____ _____    ______ ____
ROOT
ATOM      1  C1  UNL     1      22.819  29.064  38.124  0.00  0.00    +0.000 C 
ATOM      2  N1  UNL     1      22.091  30.322  38.368  0.00  0.00    +0.000 N 
ATOM      3  C2  UNL     1      22.771  31.519  38.366  0.00  0.00    +0.000 A 
ATOM      4  O1  UNL     1      24.014  31.556  38.166  0.00  0.00    +0.000 OA
ATOM      5  C3  UNL     1      22.044  32.692  38.573  0.00  0.00    +0.000 A 
ATOM      6  C4  UNL     1      20.700  32.633  38.739  0.00  0.00    +0.000 A 
ATOM      7  N2  UNL     1      20.177  33.864  38.882  0.00  0.00    +0.000 NA
ATOM      8  C5  UNL     1      21.270  34.665  38.804  0.00  0.00    +0.000 A 
ATOM      9  N3  UNL     1      21.191  36.095  38.924  0.00  0.00    +0.000 N 
ATOM     10  N4  UNL     1      22.434  33.986  38.617  0.00  0.00    +0.000 N 
ATOM     11  N5  UNL     1      20.012  31.461  38.735  0.00  0.00    +0.000 N 
ATOM     12  C25 UNL     1      18.549  31.455  38.875  0.00  0.00    +0.000 C 
ATOM     13  C26 UNL     1      20.716  30.298  38.520  0.00  0.00    +0.000 A 
ATOM     14  O4  UNL     1      20.097  29.198  38.453  0.00  0.00    +0.000 OA
ATOM     15  H4  UNL     1      22.059  36.669  38.860  0.00  0.00    +0.000 HD
ENDROOT
BRANCH   9  16
ATOM     16  C6  UNL     1      19.920  36.791  39.116  0.00  0.00    +0.000 C 
BRANCH  16  17
ATOM     17  C7  UNL     1      19.885  38.057  38.302  0.00  0.00    +0.000 A 
ATOM     18  C8  UNL     1      20.219  39.297  38.904  0.00  0.00    +0.000 A 
ATOM     19  C9  UNL     1      20.144  40.492  38.166  0.00  0.00    +0.000 A 
ATOM     20  C10 UNL     1      19.734  40.411  36.838  0.00  0.00    +0.000 A 
ATOM     21  O2  UNL     1      19.569  41.435  35.926  0.00  0.00    +0.000 OA
ATOM     22  C11 UNL     1      19.115  40.857  34.693  0.00  0.00    +0.000 C 
ATOM     23  O3  UNL     1      19.035  39.448  34.946  0.00  0.00    +0.000 OA
ATOM     24  C12 UNL     1      19.417  39.229  36.256  0.00  0.00    +0.000 A 
ATOM     25  C13 UNL     1      19.480  38.023  36.948  0.00  0.00    +0.000 A 
ENDBRANCH  16  17
ENDBRANCH   9  16
BRANCH  10  26
ATOM     26  C14 UNL     1      23.775  34.571  38.471  0.00  0.00    +0.000 C 
BRANCH  26  27
ATOM     27  C15 UNL     1      24.398  34.829  39.834  0.00  0.00    +0.000 A 
ATOM     28  C16 UNL     1      23.667  34.411  40.962  0.00  0.00    +0.000 A 
ATOM     29  C17 UNL     1      24.170  34.570  42.250  0.00  0.00    +0.000 A 
ATOM     30  C18 UNL     1      25.412  35.161  42.449  0.00  0.00    +0.000 A 
ATOM     31  C19 UNL     1      26.156  35.625  41.358  0.00  0.00    +0.000 A 
ATOM     32  C20 UNL     1      27.399  36.238  41.585  0.00  0.00    +0.000 A 
ATOM     33  C21 UNL     1      28.148  36.726  40.516  0.00  0.00    +0.000 A 
ATOM     34  C22 UNL     1      27.662  36.617  39.216  0.00  0.00    +0.000 A 
ATOM     35  C23 UNL     1      26.427  36.008  38.971  0.00  0.00    +0.000 A 
ATOM     36  C24 UNL     1      25.653  35.482  40.032  0.00  0.00    +0.000 A 
ENDBRANCH  26  27
ENDBRANCH  10  26
TORSDOF 4
ENDMDL
MODEL 2
REMARK VINA RESULT:    -7.992      4.026      9.296
REMARK INTER + INTRA:         -10.501
REMARK INTER:                  -8.850
REMARK INTRA:                  -1.651
REMARK UNBOUND:                -0.640
REMARK  Name = CNP0606747_0.pdb
REMARK  6 active torsions:
REMARK  status: ('A' for Active; 'I' for Inactive)
REMARK    1  A    between atoms: C1_1  and  N1_2
REMARK    2  A    between atoms: N3_9  and  C6_10
REMARK    3  A    between atoms: C6_10  and  C7_11
REMARK    4  A    between atoms: N4_20  and  C14_21
REMARK    5  A    between atoms: C14_21  and  C15_22
REMARK    6  A    between atoms: N5_32  and  C25_33
REMARK                            x       y       z     vdW  Elec       q    Type
REMARK                         _______ _______ _______ _____ _____    ______ ____
ROOT
ATOM      1  C1  UNL     1      21.072  42.529  30.141  0.00  0.00    +0.000 C 
ATOM      2  N1  UNL     1      21.736  41.534  31.000  0.00  0.00    +0.000 N 
ATOM      3  C2  UNL     1      21.312  41.356  32.298  0.00  0.00    +0.000 A 
ATOM      4  O1  UNL     1      20.365  42.041  32.767  0.00  0.00    +0.000 OA
ATOM      5  C3  UNL     1      21.946  40.386  33.073  0.00  0.00    +0.000 A 
ATOM      6  C4  UNL     1      22.931  39.627  32.533  0.00  0.00    +0.000 A 
ATOM      7  N2  UNL     1      23.387  38.724  33.420  0.00  0.00    +0.000 NA
ATOM      8  C5  UNL     1      22.637  38.981  34.522  0.00  0.00    +0.000 A 
ATOM      9  N3  UNL     1      22.793  38.254  35.751  0.00  0.00    +0.000 N 
ATOM     10  N4  UNL     1      21.744  39.994  34.352  0.00  0.00    +0.000 N 
ATOM     11  N5  UNL     1      23.357  39.783  31.252  0.00  0.00    +0.000 N 
ATOM     12  C25 UNL     1      24.399  38.905  30.700  0.00  0.00    +0.000 C 
ATOM     13  C26 UNL     1      22.731  40.730  30.473  0.00  0.00    +0.000 A 
ATOM     14  O4  UNL     1      23.064  40.859  29.260  0.00  0.00    +0.000 OA
ATOM     15  H4  UNL     1      22.195  38.489  36.572  0.00  0.00    +0.000 HD
ENDROOT
BRANCH   9  16
ATOM     16  C6  UNL     1      23.759  37.166  35.894  0.00  0.00    +0.000 C 
BRANCH  16  17
ATOM     17  C7  UNL     1      23.465  36.359  37.131  0.00  0.00    +0.000 A 
ATOM     18  C8  UNL     1      22.122  36.062  37.480  0.00  0.00    +0.000 A 
ATOM     19  C9  UNL     1      21.832  35.350  38.658  0.00  0.00    +0.000 A 
ATOM     20  C10 UNL     1      22.901  34.953  39.457  0.00  0.00    +0.000 A 
ATOM     21  O2  UNL     1      22.869  34.264  40.654  0.00  0.00    +0.000 OA
ATOM     22  C11 UNL     1      24.222  34.104  41.106  0.00  0.00    +0.000 C 
ATOM     23  O3  UNL     1      25.030  34.730  40.100  0.00  0.00    +0.000 OA
ATOM     24  C12 UNL     1      24.186  35.230  39.126  0.00  0.00    +0.000 A 
ATOM     25  C13 UNL     1      24.517  35.929  37.970  0.00  0.00    +0.000 A 
ENDBRANCH  16  17
ENDBRANCH   9  16
BRANCH  10  26
ATOM     26  C14 UNL     1      20.780  40.488  35.346  0.00  0.00    +0.000 C 
BRANCH  26  27
ATOM     27  C15 UNL     1      19.933  39.345  35.884  0.00  0.00    +0.000 A 
ATOM     28  C16 UNL     1      19.235  38.566  34.942  0.00  0.00    +0.000 A 
ATOM     29  C17 UNL     1      18.464  37.476  35.334  0.00  0.00    +0.000 A 
ATOM     30  C18 UNL     1      18.357  37.140  36.678  0.00  0.00    +0.000 A 
ATOM     31  C19 UNL     1      19.004  37.909  37.652  0.00  0.00    +0.000 A 
ATOM     32  C20 UNL     1      18.866  37.563  39.005  0.00  0.00    +0.000 A 
ATOM     33  C21 UNL     1      19.483  38.327  39.994  0.00  0.00    +0.000 A 
ATOM     34  C22 UNL     1      20.235  39.445  39.644  0.00  0.00    +0.000 A 
ATOM     35  C23 UNL     1      20.386  39.804  38.301  0.00  0.00    +0.000 A 
ATOM     36  C24 UNL     1      19.790  39.037  37.272  0.00  0.00    +0.000 A 
ENDBRANCH  26  27
ENDBRANCH  10  26
TORSDOF 4
ENDMDL
MODEL 3
REMARK VINA RESULT:    -7.975      3.772      8.338
REMARK INTER + INTRA:         -10.480
REMARK INTER:                  -8.522
REMARK INTRA:                  -1.958
REMARK UNBOUND:                -0.640
REMARK  Name = CNP0606747_0.pdb
REMARK  6 active torsions:
REMARK  status: ('A' for Active; 'I' for Inactive)
REMARK    1  A    between atoms: C1_1  and  N1_2
REMARK    2  A    between atoms: N3_9  and  C6_10
REMARK    3  A    between atoms: C6_10  and  C7_11
REMARK    4  A    between atoms: N4_20  and  C14_21
REMARK    5  A    between atoms: C14_21  and  C15_22
REMARK    6  A    between atoms: N5_32  and  C25_33
REMARK                            x       y       z     vdW  Elec       q    Type
REMARK                         _______ _______ _______ _____ _____    ______ ____
ROOT
ATOM      1  C1  UNL     1      17.318  40.536  33.003  0.00  0.00    +0.000 C 
ATOM      2  N1  UNL     1      17.400  39.071  33.134  0.00  0.00    +0.000 N 
ATOM      3  C2  UNL     1      18.430  38.503  33.848  0.00  0.00    +0.000 A 
ATOM      4  O1  UNL     1      19.314  39.220  34.389  0.00  0.00    +0.000 OA
ATOM      5  C3  UNL     1      18.460  37.114  33.974  0.00  0.00    +0.000 A 
ATOM      6  C4  UNL     1      17.473  36.365  33.425  0.00  0.00    +0.000 A 
ATOM      7  N2  UNL     1      17.655  35.058  33.688  0.00  0.00    +0.000 NA
ATOM      8  C5  UNL     1      18.802  35.055  34.413  0.00  0.00    +0.000 A 
ATOM      9  N3  UNL     1      19.401  33.847  34.909  0.00  0.00    +0.000 N 
ATOM     10  N4  UNL     1      19.329  36.295  34.609  0.00  0.00    +0.000 N 
ATOM     11  N5  UNL     1      16.444  36.909  32.723  0.00  0.00    +0.000 N 
ATOM     12  C25 UNL     1      15.375  36.057  32.184  0.00  0.00    +0.000 C 
ATOM     13  C26 UNL     1      16.397  38.280  32.602  0.00  0.00    +0.000 A 
ATOM     14  O4  UNL     1      15.423  38.820  32.005  0.00  0.00    +0.000 OA
ATOM     15  H4  UNL     1      20.285  33.895  35.460  0.00  0.00    +0.000 HD
ENDROOT
BRANCH   9  16
ATOM     16  C6  UNL     1      18.802  32.532  34.685  0.00  0.00    +0.000 C 
BRANCH  16  17
ATOM     17  C7  UNL     1      18.350  31.930  35.989  0.00  0.00    +0.000 A 
ATOM     18  C8  UNL     1      19.138  32.096  37.156  0.00  0.00    +0.000 A 
ATOM     19  C9  UNL     1      18.751  31.499  38.370  0.00  0.00    +0.000 A 
ATOM     20  C10 UNL     1      17.579  30.747  38.379  0.00  0.00    +0.000 A 
ATOM     21  O2  UNL     1      17.007  30.060  39.432  0.00  0.00    +0.000 OA
ATOM     22  C11 UNL     1      15.815  29.425  38.948  0.00  0.00    +0.000 C 
ATOM     23  O3  UNL     1      15.730  29.792  37.564  0.00  0.00    +0.000 OA
ATOM     24  C12 UNL     1      16.820  30.589  37.267  0.00  0.00    +0.000 A 
ATOM     25  C13 UNL     1      17.164  31.164  36.048  0.00  0.00    +0.000 A 
ENDBRANCH  16  17
ENDBRANCH   9  16
BRANCH  10  26
ATOM     26  C14 UNL     1      20.545  36.619  35.369  0.00  0.00    +0.000 C 
BRANCH  26  27
ATOM     27  C15 UNL     1      20.267  36.580  36.864  0.00  0.00    +0.000 A 
ATOM     28  C16 UNL     1      19.390  37.553  37.378  0.00  0.00    +0.000 A 
ATOM     29  C17 UNL     1      19.045  37.576  38.726  0.00  0.00    +0.000 A 
ATOM     30  C18 UNL     1      19.576  36.636  39.601  0.00  0.00    +0.000 A 
ATOM     31  C19 UNL     1      20.481  35.673  39.140  0.00  0.00    +0.000 A 
ATOM     32  C20 UNL     1      21.020  34.746  40.046  0.00  0.00    +0.000 A 
ATOM     33  C21 UNL     1      21.939  33.793  39.614  0.00  0.00    +0.000 A 
ATOM     34  C22 UNL     1      22.335  33.760  38.280  0.00  0.00    +0.000 A 
ATOM     35  C23 UNL     1      21.808  34.674  37.362  0.00  0.00    +0.000 A 
ATOM     36  C24 UNL     1      20.856  35.640  37.765  0.00  0.00    +0.000 A 
ENDBRANCH  26  27
ENDBRANCH  10  26
TORSDOF 4
ENDMDL
MODEL 4
REMARK VINA RESULT:    -7.851      2.064      5.894
REMARK INTER + INTRA:         -10.327
REMARK INTER:                  -9.574
REMARK INTRA:                  -0.753
REMARK UNBOUND:                -0.640
REMARK  Name = CNP0606747_0.pdb
REMARK  6 active torsions:
REMARK  status: ('A' for Active; 'I' for Inactive)
REMARK    1  A    between atoms: C1_1  and  N1_2
REMARK    2  A    between atoms: N3_9  and  C6_10
REMARK    3  A    between atoms: C6_10  and  C7_11
REMARK    4  A    between atoms: N4_20  and  C14_21
REMARK    5  A    between atoms: C14_21  and  C15_22
REMARK    6  A    between atoms: N5_32  and  C25_33
REMARK                            x       y       z     vdW  Elec       q    Type
REMARK                         _______ _______ _______ _____ _____    ______ ____
ROOT
ATOM      1  C1  UNL     1      25.556  30.650  39.170  0.00  0.00    +0.000 C 
ATOM      2  N1  UNL     1      24.682  31.813  39.397  0.00  0.00    +0.000 N 
ATOM      3  C2  UNL     1      23.606  32.035  38.567  0.00  0.00    +0.000 A 
ATOM      4  O1  UNL     1      23.361  31.260  37.605  0.00  0.00    +0.000 OA
ATOM      5  C3  UNL     1      22.784  33.132  38.829  0.00  0.00    +0.000 A 
ATOM      6  C4  UNL     1      23.039  33.926  39.898  0.00  0.00    +0.000 A 
ATOM      7  N2  UNL     1      22.116  34.899  40.007  0.00  0.00    +0.000 NA
ATOM      8  C5  UNL     1      21.300  34.659  38.950  0.00  0.00    +0.000 A 
ATOM      9  N3  UNL     1      20.159  35.478  38.652  0.00  0.00    +0.000 N 
ATOM     10  N4  UNL     1      21.676  33.586  38.201  0.00  0.00    +0.000 N 
ATOM     11  N5  UNL     1      24.092  33.717  40.732  0.00  0.00    +0.000 N 
ATOM     12  C25 UNL     1      24.299  34.581  41.903  0.00  0.00    +0.000 C 
ATOM     13  C26 UNL     1      24.903  32.631  40.490  0.00  0.00    +0.000 A 
ATOM     14  O4  UNL     1      25.855  32.376  41.282  0.00  0.00    +0.000 OA
ATOM     15  H4  UNL     1      19.562  35.255  37.826  0.00  0.00    +0.000 HD
ENDROOT
BRANCH   9  16
ATOM     16  C6  UNL     1      19.781  36.619  39.483  0.00  0.00    +0.000 C 
BRANCH  16  17
ATOM     17  C7  UNL     1      19.827  37.893  38.682  0.00  0.00    +0.000 A 
ATOM     18  C8  UNL     1      20.166  39.116  39.315  0.00  0.00    +0.000 A 
ATOM     19  C9  UNL     1      20.167  40.320  38.588  0.00  0.00    +0.000 A 
ATOM     20  C10 UNL     1      19.826  40.264  37.239  0.00  0.00    +0.000 A 
ATOM     21  O2  UNL     1      19.742  41.301  36.330  0.00  0.00    +0.000 OA
ATOM     22  C11 UNL     1      19.337  40.750  35.068  0.00  0.00    +0.000 C 
ATOM     23  O3  UNL     1      19.202  39.341  35.302  0.00  0.00    +0.000 OA
ATOM     24  C12 UNL     1      19.505  39.098  36.628  0.00  0.00    +0.000 A 
ATOM     25  C13 UNL     1      19.495  37.884  37.309  0.00  0.00    +0.000 A 
ENDBRANCH  16  17
ENDBRANCH   9  16
BRANCH  10  26
ATOM     26  C14 UNL     1      20.986  33.062  37.013  0.00  0.00    +0.000 C 
BRANCH  26  27
ATOM     27  C15 UNL     1      19.783  32.225  37.419  0.00  0.00    +0.000 A 
ATOM     28  C16 UNL     1      19.752  31.747  38.743  0.00  0.00    +0.000 A 
ATOM     29  C17 UNL     1      18.676  31.004  39.219  0.00  0.00    +0.000 A 
ATOM     30  C18 UNL     1      17.606  30.707  38.384  0.00  0.00    +0.000 A 
ATOM     31  C19 UNL     1      17.611  31.131  37.050  0.00  0.00    +0.000 A 
ATOM     32  C20 UNL     1      16.529  30.802  36.219  0.00  0.00    +0.000 A 
ATOM     33  C21 UNL     1      16.522  31.194  34.883  0.00  0.00    +0.000 A 
ATOM     34  C22 UNL     1      17.597  31.909  34.361  0.00  0.00    +0.000 A 
ATOM     35  C23 UNL     1      18.684  32.248  35.173  0.00  0.00    +0.000 A 
ATOM     36  C24 UNL     1      18.710  31.883  36.540  0.00  0.00    +0.000 A 
ENDBRANCH  26  27
ENDBRANCH  10  26
TORSDOF 4
ENDMDL
MODEL 5
REMARK VINA RESULT:    -7.832      3.535      8.427
REMARK INTER + INTRA:         -10.304
REMARK INTER:                  -8.299
REMARK INTRA:                  -2.005
REMARK UNBOUND:                -0.640
REMARK  Name = CNP0606747_0.pdb
REMARK  6 active torsions:
REMARK  status: ('A' for Active; 'I' for Inactive)
REMARK    1  A    between atoms: C1_1  and  N1_2
REMARK    2  A    between atoms: N3_9  and  C6_10
REMARK    3  A    between atoms: C6_10  and  C7_11
REMARK    4  A    between atoms: N4_20  and  C14_21
REMARK    5  A    between atoms: C14_21  and  C15_22
REMARK    6  A    between atoms: N5_32  and  C25_33
REMARK                            x       y       z     vdW  Elec       q    Type
REMARK                         _______ _______ _______ _____ _____    ______ ____
ROOT
ATOM      1  C1  UNL     1      17.694  43.042  34.375  0.00  0.00    +0.000 C 
ATOM      2  N1  UNL     1      17.931  41.616  34.089  0.00  0.00    +0.000 N 
ATOM      3  C2  UNL     1      18.904  40.931  34.778  0.00  0.00    +0.000 A 
ATOM      4  O1  UNL     1      19.607  41.508  35.650  0.00  0.00    +0.000 OA
ATOM      5  C3  UNL     1      19.081  39.575  34.500  0.00  0.00    +0.000 A 
ATOM      6  C4  UNL     1      18.283  38.962  33.592  0.00  0.00    +0.000 A 
ATOM      7  N2  UNL     1      18.578  37.653  33.494  0.00  0.00    +0.000 NA
ATOM      8  C5  UNL     1      19.598  37.510  34.378  0.00  0.00    +0.000 A 
ATOM      9  N3  UNL     1      20.257  36.253  34.601  0.00  0.00    +0.000 N 
ATOM     10  N4  UNL     1      19.938  38.664  35.014  0.00  0.00    +0.000 N 
ATOM     11  N5  UNL     1      17.311  39.622  32.908  0.00  0.00    +0.000 N 
ATOM     12  C25 UNL     1      16.442  38.902  31.966  0.00  0.00    +0.000 C 
ATOM     13  C26 UNL     1      17.119  40.958  33.182  0.00  0.00    +0.000 A 
ATOM     14  O4  UNL     1      16.185  41.584  32.605  0.00  0.00    +0.000 OA
ATOM     15  H4  UNL     1      21.038  36.191  35.289  0.00  0.00    +0.000 HD
ENDROOT
BRANCH   9  16
ATOM     16  C6  UNL     1      19.858  35.030  33.905  0.00  0.00    +0.000 C 
BRANCH  16  17
ATOM     17  C7  UNL     1      19.534  33.943  34.893  0.00  0.00    +0.000 A 
ATOM     18  C8  UNL     1      20.147  33.942  36.173  0.00  0.00    +0.000 A 
ATOM     19  C9  UNL     1      19.887  32.905  37.087  0.00  0.00    +0.000 A 
ATOM     20  C10 UNL     1      19.016  31.893  36.693  0.00  0.00    +0.000 A 
ATOM     21  O2  UNL     1      18.621  30.775  37.400  0.00  0.00    +0.000 OA
ATOM     22  C11 UNL     1      17.728  30.020  36.569  0.00  0.00    +0.000 C 
ATOM     23  O3  UNL     1      17.626  30.769  35.351  0.00  0.00    +0.000 OA
ATOM     24  C12 UNL     1      18.424  31.891  35.473  0.00  0.00    +0.000 A 
ATOM     25  C13 UNL     1      18.650  32.898  34.540  0.00  0.00    +0.000 A 
ENDBRANCH  16  17
ENDBRANCH   9  16
BRANCH  10  26
ATOM     26  C14 UNL     1      20.981  38.825  36.037  0.00  0.00    +0.000 C 
BRANCH  26  27
ATOM     27  C15 UNL     1      20.645  38.011  37.277  0.00  0.00    +0.000 A 
ATOM     28  C16 UNL     1      19.459  38.343  37.959  0.00  0.00    +0.000 A 
ATOM     29  C17 UNL     1      19.046  37.632  39.082  0.00  0.00    +0.000 A 
ATOM     30  C18 UNL     1      19.812  36.577  39.563  0.00  0.00    +0.000 A 
ATOM     31  C19 UNL     1      21.017  36.236  38.938  0.00  0.00    +0.000 A 
ATOM     32  C20 UNL     1      21.785  35.179  39.453  0.00  0.00    +0.000 A 
ATOM     33  C21 UNL     1      22.998  34.836  38.861  0.00  0.00    +0.000 A 
ATOM     34  C22 UNL     1      23.461  35.547  37.757  0.00  0.00    +0.000 A 
ATOM     35  C23 UNL     1      22.710  36.601  37.228  0.00  0.00    +0.000 A 
ATOM     36  C24 UNL     1      21.463  36.960  37.793  0.00  0.00    +0.000 A 
ENDBRANCH  26  27
ENDBRANCH  10  26
TORSDOF 4
ENDMDL
MODEL 6
REMARK VINA RESULT:    -7.795      3.333      4.896
REMARK INTER + INTRA:         -10.258
REMARK INTER:                  -8.321
REMARK INTRA:                  -1.937
REMARK UNBOUND:                -0.640
REMARK  Name = CNP0606747_0.pdb
REMARK  6 active torsions:
REMARK  status: ('A' for Active; 'I' for Inactive)
REMARK    1  A    between atoms: C1_1  and  N1_2
REMARK    2  A    between atoms: N3_9  and  C6_10
REMARK    3  A    between atoms: C6_10  and  C7_11
REMARK    4  A    between atoms: N4_20  and  C14_21
REMARK    5  A    between atoms: C14_21  and  C15_22
REMARK    6  A    between atoms: N5_32  and  C25_33
REMARK                            x       y       z     vdW  Elec       q    Type
REMARK                         _______ _______ _______ _____ _____    ______ ____
ROOT
ATOM      1  C1  UNL     1      22.311  30.992  40.669  0.00  0.00    +0.000 C 
ATOM      2  N1  UNL     1      21.493  31.509  39.558  0.00  0.00    +0.000 N 
ATOM      3  C2  UNL     1      21.746  32.760  39.045  0.00  0.00    +0.000 A 
ATOM      4  O1  UNL     1      22.666  33.479  39.518  0.00  0.00    +0.000 OA
ATOM      5  C3  UNL     1      20.968  33.206  37.975  0.00  0.00    +0.000 A 
ATOM      6  C4  UNL     1      20.015  32.397  37.451  0.00  0.00    +0.000 A 
ATOM      7  N2  UNL     1      19.405  32.985  36.406  0.00  0.00    +0.000 NA
ATOM      8  C5  UNL     1      20.029  34.187  36.331  0.00  0.00    +0.000 A 
ATOM      9  N3  UNL     1      19.685  35.178  35.350  0.00  0.00    +0.000 N 
ATOM     10  N4  UNL     1      20.992  34.364  37.277  0.00  0.00    +0.000 N 
ATOM     11  N5  UNL     1      19.757  31.155  37.940  0.00  0.00    +0.000 N 
ATOM     12  C25 UNL     1      18.742  30.301  37.308  0.00  0.00    +0.000 C 
ATOM     13  C26 UNL     1      20.526  30.700  38.988  0.00  0.00    +0.000 A 
ATOM     14  O4  UNL     1      20.349  29.528  39.427  0.00  0.00    +0.000 OA
ATOM     15  H4  UNL     1      20.191  36.090  35.334  0.00  0.00    +0.000 HD
ENDROOT
BRANCH   9  16
ATOM     16  C6  UNL     1      18.649  34.951  34.344  0.00  0.00    +0.000 C 
BRANCH  16  17
ATOM     17  C7  UNL     1      18.014  36.254  33.938  0.00  0.00    +0.000 A 
ATOM     18  C8  UNL     1      18.284  37.435  34.677  0.00  0.00    +0.000 A 
ATOM     19  C9  UNL     1      17.660  38.649  34.336  0.00  0.00    +0.000 A 
ATOM     20  C10 UNL     1      16.778  38.646  33.258  0.00  0.00    +0.000 A 
ATOM     21  O2  UNL     1      16.042  39.696  32.747  0.00  0.00    +0.000 OA
ATOM     22  C11 UNL     1      15.267  39.198  31.647  0.00  0.00    +0.000 C 
ATOM     23  O3  UNL     1      15.605  37.808  31.550  0.00  0.00    +0.000 OA
ATOM     24  C12 UNL     1      16.519  37.521  32.546  0.00  0.00    +0.000 A 
ATOM     25  C13 UNL     1      17.116  36.301  32.847  0.00  0.00    +0.000 A 
ENDBRANCH  16  17
ENDBRANCH   9  16
BRANCH  10  26
ATOM     26  C14 UNL     1      21.854  35.543  37.440  0.00  0.00    +0.000 C 
BRANCH  26  27
ATOM     27  C15 UNL     1      21.049  36.728  37.949  0.00  0.00    +0.000 A 
ATOM     28  C16 UNL     1      20.365  36.562  39.169  0.00  0.00    +0.000 A 
ATOM     29  C17 UNL     1      19.632  37.600  39.735  0.00  0.00    +0.000 A 
ATOM     30  C18 UNL     1      19.551  38.831  39.095  0.00  0.00    +0.000 A 
ATOM     31  C19 UNL     1      20.185  39.030  37.863  0.00  0.00    +0.000 A 
ATOM     32  C20 UNL     1      20.073  40.275  37.224  0.00  0.00    +0.000 A 
ATOM     33  C21 UNL     1      20.677  40.489  35.987  0.00  0.00    +0.000 A 
ATOM     34  C22 UNL     1      21.390  39.463  35.372  0.00  0.00    +0.000 A 
ATOM     35  C23 UNL     1      21.514  38.216  35.994  0.00  0.00    +0.000 A 
ATOM     36  C24 UNL     1      20.931  37.974  37.260  0.00  0.00    +0.000 A 
ENDBRANCH  26  27
ENDBRANCH  10  26
TORSDOF 4
ENDMDL
MODEL 7
REMARK VINA RESULT:    -7.779      4.542      5.931
REMARK INTER + INTRA:         -10.238
REMARK INTER:                  -8.810
REMARK INTRA:                  -1.428
REMARK UNBOUND:                -0.640
REMARK  Name = CNP0606747_0.pdb
REMARK  6 active torsions:
REMARK  status: ('A' for Active; 'I' for Inactive)
REMARK    1  A    between atoms: C1_1  and  N1_2
REMARK    2  A    between atoms: N3_9  and  C6_10
REMARK    3  A    between atoms: C6_10  and  C7_11
REMARK    4  A    between atoms: N4_20  and  C14_21
REMARK    5  A    between atoms: C14_21  and  C15_22
REMARK    6  A    between atoms: N5_32  and  C25_33
REMARK                            x       y       z     vdW  Elec       q    Type
REMARK                         _______ _______ _______ _____ _____    ______ ____
ROOT
ATOM      1  C1  UNL     1      20.977  30.908  34.620  0.00  0.00    +0.000 C 
ATOM      2  N1  UNL     1      20.039  32.019  34.386  0.00  0.00    +0.000 N 
ATOM      3  C2  UNL     1      20.391  33.301  34.741  0.00  0.00    +0.000 A 
ATOM      4  O1  UNL     1      21.507  33.540  35.274  0.00  0.00    +0.000 OA
ATOM      5  C3  UNL     1      19.488  34.332  34.479  0.00  0.00    +0.000 A 
ATOM      6  C4  UNL     1      18.312  34.059  33.862  0.00  0.00    +0.000 A 
ATOM      7  N2  UNL     1      17.600  35.182  33.660  0.00  0.00    +0.000 NA
ATOM      8  C5  UNL     1      18.397  36.142  34.193  0.00  0.00    +0.000 A 
ATOM      9  N3  UNL     1      18.026  37.529  34.218  0.00  0.00    +0.000 N 
ATOM     10  N4  UNL     1      19.562  35.662  34.708  0.00  0.00    +0.000 N 
ATOM     11  N5  UNL     1      17.951  32.800  33.497  0.00  0.00    +0.000 N 
ATOM     12  C25 UNL     1      16.685  32.562  32.790  0.00  0.00    +0.000 C 
ATOM     13  C26 UNL     1      18.840  31.776  33.739  0.00  0.00    +0.000 A 
ATOM     14  O4  UNL     1      18.558  30.604  33.360  0.00  0.00    +0.000 OA
ATOM     15  H4  UNL     1      18.672  38.232  34.641  0.00  0.00    +0.000 HD
ENDROOT
BRANCH   9  16
ATOM     16  C6  UNL     1      16.769  38.010  33.648  0.00  0.00    +0.000 C 
BRANCH  16  17
ATOM     17  C7  UNL     1      16.823  39.498  33.431  0.00  0.00    +0.000 A 
ATOM     18  C8  UNL     1      15.927  40.115  32.520  0.00  0.00    +0.000 A 
ATOM     19  C9  UNL     1      15.999  41.498  32.275  0.00  0.00    +0.000 A 
ATOM     20  C10 UNL     1      16.972  42.229  32.952  0.00  0.00    +0.000 A 
ATOM     21  O2  UNL     1      17.245  43.580  32.868  0.00  0.00    +0.000 OA
ATOM     22  C11 UNL     1      18.348  43.862  33.743  0.00  0.00    +0.000 C 
ATOM     23  O3  UNL     1      18.685  42.601  34.338  0.00  0.00    +0.000 OA
ATOM     24  C12 UNL     1      17.827  41.646  33.827  0.00  0.00    +0.000 A 
ATOM     25  C13 UNL     1      17.789  40.282  34.101  0.00  0.00    +0.000 A 
ENDBRANCH  16  17
ENDBRANCH   9  16
BRANCH  10  26
ATOM     26  C14 UNL     1      20.636  36.452  35.328  0.00  0.00    +0.000 C 
BRANCH  26  27
ATOM     27  C15 UNL     1      20.316  36.736  36.788  0.00  0.00    +0.000 A 
ATOM     28  C16 UNL     1      20.161  35.626  37.638  0.00  0.00    +0.000 A 
ATOM     29  C17 UNL     1      19.904  35.784  38.996  0.00  0.00    +0.000 A 
ATOM     30  C18 UNL     1      19.783  37.056  39.542  0.00  0.00    +0.000 A 
ATOM     31  C19 UNL     1      19.894  38.189  38.727  0.00  0.00    +0.000 A 
ATOM     32  C20 UNL     1      19.749  39.464  39.297  0.00  0.00    +0.000 A 
ATOM     33  C21 UNL     1      19.834  40.604  38.502  0.00  0.00    +0.000 A 
ATOM     34  C22 UNL     1      20.055  40.484  37.132  0.00  0.00    +0.000 A 
ATOM     35  C23 UNL     1      20.204  39.223  36.547  0.00  0.00    +0.000 A 
ATOM     36  C24 UNL     1      20.145  38.047  37.331  0.00  0.00    +0.000 A 
ENDBRANCH  26  27
ENDBRANCH  10  26
TORSDOF 4
ENDMDL
MODEL 8
REMARK VINA RESULT:    -7.748      3.375      8.655
REMARK INTER + INTRA:         -10.201
REMARK INTER:                  -9.014
REMARK INTRA:                  -1.186
REMARK UNBOUND:                -0.640
REMARK  Name = CNP0606747_0.pdb
REMARK  6 active torsions:
REMARK  status: ('A' for Active; 'I' for Inactive)
REMARK    1  A    between atoms: C1_1  and  N1_2
REMARK    2  A    between atoms: N3_9  and  C6_10
REMARK    3  A    between atoms: C6_10  and  C7_11
REMARK    4  A    between atoms: N4_20  and  C14_21
REMARK    5  A    between atoms: C14_21  and  C15_22
REMARK    6  A    between atoms: N5_32  and  C25_33
REMARK                            x       y       z     vdW  Elec       q    Type
REMARK                         _______ _______ _______ _____ _____    ______ ____
ROOT
ATOM      1  C1  UNL     1      20.355  41.354  31.851  0.00  0.00    +0.000 C 
ATOM      2  N1  UNL     1      21.286  40.536  32.646  0.00  0.00    +0.000 N 
ATOM      3  C2  UNL     1      20.805  39.502  33.417  0.00  0.00    +0.000 A 
ATOM      4  O1  UNL     1      19.572  39.249  33.461  0.00  0.00    +0.000 OA
ATOM      5  C3  UNL     1      21.720  38.732  34.135  0.00  0.00    +0.000 A 
ATOM      6  C4  UNL     1      23.046  38.992  34.037  0.00  0.00    +0.000 A 
ATOM      7  N2  UNL     1      23.765  38.119  34.765  0.00  0.00    +0.000 NA
ATOM      8  C5  UNL     1      22.809  37.328  35.314  0.00  0.00    +0.000 A 
ATOM      9  N3  UNL     1      23.120  36.242  36.202  0.00  0.00    +0.000 N 
ATOM     10  N4  UNL     1      21.542  37.671  34.955  0.00  0.00    +0.000 N 
ATOM     11  N5  UNL     1      23.540  40.003  33.274  0.00  0.00    +0.000 N 
ATOM     12  C25 UNL     1      24.990  40.216  33.165  0.00  0.00    +0.000 C 
ATOM     13  C26 UNL     1      22.648  40.763  32.551  0.00  0.00    +0.000 A 
ATOM     14  O4  UNL     1      23.080  41.673  31.788  0.00  0.00    +0.000 OA
ATOM     15  H4  UNL     1      22.350  35.662  36.602  0.00  0.00    +0.000 HD
ENDROOT
BRANCH   9  16
ATOM     16  C6  UNL     1      24.495  35.898  36.560  0.00  0.00    +0.000 C 
BRANCH  16  17
ATOM     17  C7  UNL     1      24.578  35.499  38.009  0.00  0.00    +0.000 A 
ATOM     18  C8  UNL     1      23.498  34.809  38.617  0.00  0.00    +0.000 A 
ATOM     19  C9  UNL     1      23.544  34.472  39.982  0.00  0.00    +0.000 A 
ATOM     20  C10 UNL     1      24.677  34.838  40.704  0.00  0.00    +0.000 A 
ATOM     21  O2  UNL     1      24.947  34.635  42.043  0.00  0.00    +0.000 OA
ATOM     22  C11 UNL     1      26.234  35.203  42.326  0.00  0.00    +0.000 C 
ATOM     23  O3  UNL     1      26.690  35.737  41.075  0.00  0.00    +0.000 OA
ATOM     24  C12 UNL     1      25.714  35.493  40.127  0.00  0.00    +0.000 A 
ATOM     25  C13 UNL     1      25.711  35.843  38.780  0.00  0.00    +0.000 A 
ENDBRANCH  16  17
ENDBRANCH   9  16
BRANCH  10  26
ATOM     26  C14 UNL     1      20.302  36.995  35.364  0.00  0.00    +0.000 C 
BRANCH  26  27
ATOM     27  C15 UNL     1      20.141  37.041  36.876  0.00  0.00    +0.000 A 
ATOM     28  C16 UNL     1      20.119  35.809  37.556  0.00  0.00    +0.000 A 
ATOM     29  C17 UNL     1      20.013  35.749  38.942  0.00  0.00    +0.000 A 
ATOM     30  C18 UNL     1      19.914  36.917  39.688  0.00  0.00    +0.000 A 
ATOM     31  C19 UNL     1      19.894  38.163  39.050  0.00  0.00    +0.000 A 
ATOM     32  C20 UNL     1      19.773  39.329  39.822  0.00  0.00    +0.000 A 
ATOM     33  C21 UNL     1      19.729  40.579  39.208  0.00  0.00    +0.000 A 
ATOM     34  C22 UNL     1      19.798  40.677  37.821  0.00  0.00    +0.000 A 
ATOM     35  C23 UNL     1      19.921  39.527  37.035  0.00  0.00    +0.000 A 
ATOM     36  C24 UNL     1      19.990  38.245  37.630  0.00  0.00    +0.000 A 
ENDBRANCH  26  27
ENDBRANCH  10  26
TORSDOF 4
ENDMDL
MODEL 9
REMARK VINA RESULT:    -7.689      4.009      8.097
REMARK INTER + INTRA:         -10.127
REMARK INTER:                  -8.648
REMARK INTRA:                  -1.479
REMARK UNBOUND:                -0.640
REMARK  Name = CNP0606747_0.pdb
REMARK  6 active torsions:
REMARK  status: ('A' for Active; 'I' for Inactive)
REMARK    1  A    between atoms: C1_1  and  N1_2
REMARK    2  A    between atoms: N3_9  and  C6_10
REMARK    3  A    between atoms: C6_10  and  C7_11
REMARK    4  A    between atoms: N4_20  and  C14_21
REMARK    5  A    between atoms: C14_21  and  C15_22
REMARK    6  A    between atoms: N5_32  and  C25_33
REMARK                            x       y       z     vdW  Elec       q    Type
REMARK                         _______ _______ _______ _____ _____    ______ ____
ROOT
ATOM      1  C1  UNL     1      16.575  36.313  30.094  0.00  0.00    +0.000 C 
ATOM      2  N1  UNL     1      17.616  35.891  31.047  0.00  0.00    +0.000 N 
ATOM      3  C2  UNL     1      17.573  36.331  32.350  0.00  0.00    +0.000 A 
ATOM      4  O1  UNL     1      16.656  37.101  32.742  0.00  0.00    +0.000 OA
ATOM      5  C3  UNL     1      18.561  35.889  33.230  0.00  0.00    +0.000 A 
ATOM      6  C4  UNL     1      19.510  35.023  32.800  0.00  0.00    +0.000 A 
ATOM      7  N2  UNL     1      20.343  34.682  33.800  0.00  0.00    +0.000 NA
ATOM      8  C5  UNL     1      19.855  35.390  34.850  0.00  0.00    +0.000 A 
ATOM      9  N3  UNL     1      20.454  35.350  36.155  0.00  0.00    +0.000 N 
ATOM     10  N4  UNL     1      18.765  36.145  34.543  0.00  0.00    +0.000 N 
ATOM     11  N5  UNL     1      19.564  34.571  31.518  0.00  0.00    +0.000 N 
ATOM     12  C25 UNL     1      20.588  33.599  31.112  0.00  0.00    +0.000 C 
ATOM     13  C26 UNL     1      18.588  34.992  30.643  0.00  0.00    +0.000 A 
ATOM     14  O4  UNL     1      18.576  34.545  29.461  0.00  0.00    +0.000 OA
ATOM     15  H4  UNL     1      20.045  35.914  36.932  0.00  0.00    +0.000 HD
ENDROOT
BRANCH   9  16
ATOM     16  C6  UNL     1      21.622  34.521  36.451  0.00  0.00    +0.000 C 
BRANCH  16  17
ATOM     17  C7  UNL     1      21.871  34.473  37.935  0.00  0.00    +0.000 A 
ATOM     18  C8  UNL     1      20.778  34.467  38.838  0.00  0.00    +0.000 A 
ATOM     19  C9  UNL     1      20.999  34.469  40.227  0.00  0.00    +0.000 A 
ATOM     20  C10 UNL     1      22.317  34.478  40.675  0.00  0.00    +0.000 A 
ATOM     21  O2  UNL     1      22.783  34.497  41.975  0.00  0.00    +0.000 OA
ATOM     22  C11 UNL     1      24.217  34.517  41.929  0.00  0.00    +0.000 C 
ATOM     23  O3  UNL     1      24.548  34.501  40.534  0.00  0.00    +0.000 OA
ATOM     24  C12 UNL     1      23.366  34.480  39.817  0.00  0.00    +0.000 A 
ATOM     25  C13 UNL     1      23.193  34.475  38.436  0.00  0.00    +0.000 A 
ENDBRANCH  16  17
ENDBRANCH   9  16
BRANCH  10  26
ATOM     26  C14 UNL     1      18.001  36.997  35.465  0.00  0.00    +0.000 C 
BRANCH  26  27
ATOM     27  C15 UNL     1      18.804  38.233  35.841  0.00  0.00    +0.000 A 
ATOM     28  C16 UNL     1      19.157  39.110  34.798  0.00  0.00    +0.000 A 
ATOM     29  C17 UNL     1      19.859  40.285  35.046  0.00  0.00    +0.000 A 
ATOM     30  C18 UNL     1      20.239  40.613  36.342  0.00  0.00    +0.000 A 
ATOM     31  C19 UNL     1      19.942  39.753  37.405  0.00  0.00    +0.000 A 
ATOM     32  C20 UNL     1      20.354  40.095  38.703  0.00  0.00    +0.000 A 
ATOM     33  C21 UNL     1      20.088  39.243  39.773  0.00  0.00    +0.000 A 
ATOM     34  C22 UNL     1      19.418  38.042  39.559  0.00  0.00    +0.000 A 
ATOM     35  C23 UNL     1      18.998  37.684  38.273  0.00  0.00    +0.000 A 
ATOM     36  C24 UNL     1      19.234  38.538  37.169  0.00  0.00    +0.000 A 
ENDBRANCH  26  27
ENDBRANCH  10  26
TORSDOF 4
ENDMDL
MODEL 10
REMARK VINA RESULT:    -7.676      3.868      9.538
REMARK INTER + INTRA:         -10.111
REMARK INTER:                  -8.382
REMARK INTRA:                  -1.729
REMARK UNBOUND:                -0.640
REMARK  Name = CNP0606747_0.pdb
REMARK  6 active torsions:
REMARK  status: ('A' for Active; 'I' for Inactive)
REMARK    1  A    between atoms: C1_1  and  N1_2
REMARK    2  A    between atoms: N3_9  and  C6_10
REMARK    3  A    between atoms: C6_10  and  C7_11
REMARK    4  A    between atoms: N4_20  and  C14_21
REMARK    5  A    between atoms: C14_21  and  C15_22
REMARK    6  A    between atoms: N5_32  and  C25_33
REMARK                            x       y       z     vdW  Elec       q    Type
REMARK                         _______ _______ _______ _____ _____    ______ ____
ROOT
ATOM      1  C1  UNL     1      19.272  44.173  32.467  0.00  0.00    +0.000 C 
ATOM      2  N1  UNL     1      20.301  43.163  32.773  0.00  0.00    +0.000 N 
ATOM      3  C2  UNL     1      19.953  42.010  33.438  0.00  0.00    +0.000 A 
ATOM      4  O1  UNL     1      18.763  41.806  33.799  0.00  0.00    +0.000 OA
ATOM      5  C3  UNL     1      20.948  41.064  33.686  0.00  0.00    +0.000 A 
ATOM      6  C4  UNL     1      22.212  41.283  33.248  0.00  0.00    +0.000 A 
ATOM      7  N2  UNL     1      23.013  40.244  33.545  0.00  0.00    +0.000 NA
ATOM      8  C5  UNL     1      22.175  39.394  34.191  0.00  0.00    +0.000 A 
ATOM      9  N3  UNL     1      22.609  38.130  34.718  0.00  0.00    +0.000 N 
ATOM     10  N4  UNL     1      20.901  39.860  34.301  0.00  0.00    +0.000 N 
ATOM     11  N5  UNL     1      22.571  42.412  32.582  0.00  0.00    +0.000 N 
ATOM     12  C25 UNL     1      23.945  42.582  32.088  0.00  0.00    +0.000 C 
ATOM     13  C26 UNL     1      21.595  43.348  32.321  0.00  0.00    +0.000 A 
ATOM     14  O4  UNL     1      21.885  44.381  31.654  0.00  0.00    +0.000 OA
ATOM     15  H4  UNL     1      21.928  37.512  35.210  0.00  0.00    +0.000 HD
ENDROOT
BRANCH   9  16
ATOM     16  C6  UNL     1      23.985  37.658  34.574  0.00  0.00    +0.000 C 
BRANCH  16  17
ATOM     17  C7  UNL     1      24.367  36.784  35.738  0.00  0.00    +0.000 A 
ATOM     18  C8  UNL     1      25.559  36.017  35.688  0.00  0.00    +0.000 A 
ATOM     19  C9  UNL     1      25.902  35.160  36.749  0.00  0.00    +0.000 A 
ATOM     20  C10 UNL     1      25.036  35.095  37.838  0.00  0.00    +0.000 A 
ATOM     21  O2  UNL     1      25.147  34.326  38.979  0.00  0.00    +0.000 OA
ATOM     22  C11 UNL     1      24.001  34.590  39.802  0.00  0.00    +0.000 C 
ATOM     23  O3  UNL     1      23.232  35.557  39.074  0.00  0.00    +0.000 OA
ATOM     24  C12 UNL     1      23.897  35.828  37.893  0.00  0.00    +0.000 A 
ATOM     25  C13 UNL     1      23.522  36.690  36.867  0.00  0.00    +0.000 A 
ENDBRANCH  16  17
ENDBRANCH   9  16
BRANCH  10  26
ATOM     26  C14 UNL     1      19.765  39.165  34.923  0.00  0.00    +0.000 C 
BRANCH  26  27
ATOM     27  C15 UNL     1      19.840  39.266  36.439  0.00  0.00    +0.000 A 
ATOM     28  C16 UNL     1      19.882  40.560  36.993  0.00  0.00    +0.000 A 
ATOM     29  C17 UNL     1      19.915  40.756  38.371  0.00  0.00    +0.000 A 
ATOM     30  C18 UNL     1      19.918  39.666  39.233  0.00  0.00    +0.000 A 
ATOM     31  C19 UNL     1      19.914  38.362  38.725  0.00  0.00    +0.000 A 
ATOM     32  C20 UNL     1      19.938  37.277  39.615  0.00  0.00    +0.000 A 
ATOM     33  C21 UNL     1      19.956  35.970  39.132  0.00  0.00    +0.000 A 
ATOM     34  C22 UNL     1      19.959  35.734  37.760  0.00  0.00    +0.000 A 
ATOM     35  C23 UNL     1      19.934  36.802  36.857  0.00  0.00    +0.000 A 
ATOM     36  C24 UNL     1      19.893  38.140  37.317  0.00  0.00    +0.000 A 
ENDBRANCH  26  27
ENDBRANCH  10  26
TORSDOF 4
ENDMDL
