MODEL 1
REMARK VINA RESULT:    -7.439      0.000      0.000
REMARK INTER + INTRA:         -12.464
REMARK INTER:                  -9.613
REMARK INTRA:                  -2.851
REMARK UNBOUND:                -2.851
REMARK  Name = CNP0040680_2.pdb
REMARK  7 active torsions:
REMARK  status: ('A' for Active; 'I' for Inactive)
REMARK    1  A    between atoms: C1_1  and  C2_2
REMARK    2  A    between atoms: C5_5  and  N1_6
REMARK    3  A    between atoms: C10_12  and  C11_13
REMARK    4  A    between atoms: C11_13  and  O3_15
REMARK    5  A    between atoms: O3_15  and  C12_16
REMARK    6  A    between atoms: N2_29  and  C23_30
REMARK    7  A    between atoms: C26_33  and  C27_34
REMARK                            x       y       z     vdW  Elec       q    Type
REMARK                         _______ _______ _______ _____ _____    ______ ____
ROOT
ATOM      1  N1  UNL     1      23.307  45.682  32.526  0.00  0.00    +0.000 N 
ATOM      2  C6  UNL     1      23.568  44.389  31.939  0.00  0.00    +0.000 C 
ATOM      3  O1  UNL     1      24.673  44.029  31.455  0.00  0.00    +0.000 OA
ATOM      4  C7  UNL     1      22.433  43.495  32.263  0.00  0.00    +0.000 C 
ATOM      5  C8  UNL     1      21.932  42.115  31.715  0.00  0.00    +0.000 C 
ATOM      6  C9  UNL     1      20.850  42.377  30.645  0.00  0.00    +0.000 C 
ATOM      7  C10 UNL     1      19.740  43.056  31.091  0.00  0.00    +0.000 C 
ATOM      8  C18 UNL     1      19.907  43.732  32.474  0.00  0.00    +0.000 C 
ATOM      9  C19 UNL     1      21.261  44.514  32.232  0.00  0.00    +0.000 C 
ATOM     10  C20 UNL     1      21.912  45.668  32.897  0.00  0.00    +0.000 C 
ATOM     11  O4  UNL     1      21.315  46.607  33.487  0.00  0.00    +0.000 OA
ATOM     12  C21 UNL     1      20.224  42.619  33.534  0.00  0.00    +0.000 C 
ATOM     13  C22 UNL     1      19.400  41.821  34.469  0.00  0.00    +0.000 C 
ATOM     14  O5  UNL     1      18.288  42.164  34.952  0.00  0.00    +0.000 OA
ATOM     15  N2  UNL     1      20.191  40.703  34.928  0.00  0.00    +0.000 N 
ATOM     16  C30 UNL     1      21.323  40.636  34.036  0.00  0.00    +0.000 C 
ATOM     17  O6  UNL     1      22.280  39.825  34.146  0.00  0.00    +0.000 OA
ATOM     18  C31 UNL     1      21.037  41.482  32.854  0.00  0.00    +0.000 C 
ENDROOT
BRANCH   1  23
ATOM     19  C1  UNL     1      27.142  49.840  33.587  0.00  0.00    +0.000 C 
ATOM     20  C2  UNL     1      26.144  48.759  33.295  0.00  0.00    +0.000 A 
ATOM     21  C3  UNL     1      25.286  48.849  32.190  0.00  0.00    +0.000 A 
ATOM     22  C4  UNL     1      24.356  47.837  31.934  0.00  0.00    +0.000 A 
ATOM     23  C5  UNL     1      24.268  46.720  32.782  0.00  0.00    +0.000 A 
ATOM     24  C32 UNL     1      25.128  46.634  33.889  0.00  0.00    +0.000 A 
ATOM     25  C33 UNL     1      26.060  47.646  34.143  0.00  0.00    +0.000 A 
ENDBRANCH   1  23
BRANCH  15  26
ATOM     26  C23 UNL     1      19.902  39.830  36.032  0.00  0.00    +0.000 A 
ATOM     27  C24 UNL     1      20.217  40.215  37.346  0.00  0.00    +0.000 A 
ATOM     28  C25 UNL     1      19.939  39.367  38.421  0.00  0.00    +0.000 A 
ATOM     29  C26 UNL     1      19.356  38.111  38.198  0.00  0.00    +0.000 A 
ATOM     30  C27 UNL     1      19.025  37.211  39.350  0.00  0.00    +0.000 C 
ATOM     31  C28 UNL     1      19.027  37.729  36.889  0.00  0.00    +0.000 A 
ATOM     32  C29 UNL     1      19.303  38.578  35.814  0.00  0.00    +0.000 A 
ENDBRANCH  15  26
BRANCH   7  33
ATOM     33  C11 UNL     1      18.525  43.223  30.278  0.00  0.00    +0.000 C 
ATOM     34  O2  UNL     1      18.340  44.294  29.634  0.00  0.00    +0.000 OA
BRANCH  33  35
ATOM     35  O3  UNL     1      17.623  42.156  30.170  0.00  0.00    +0.000 OA
BRANCH  35  36
ATOM     36  C12 UNL     1      17.417  41.157  31.133  0.00  0.00    +0.000 A 
ATOM     37  C13 UNL     1      16.376  41.327  32.055  0.00  0.00    +0.000 A 
ATOM     38  C14 UNL     1      16.137  40.365  33.043  0.00  0.00    +0.000 A 
ATOM     39  C15 UNL     1      16.926  39.215  33.103  0.00  0.00    +0.000 A 
ATOM     40  C16 UNL     1      17.950  39.021  32.173  0.00  0.00    +0.000 A 
ATOM     41  C17 UNL     1      18.191  39.982  31.183  0.00  0.00    +0.000 A 
ENDBRANCH  35  36
ENDBRANCH  33  35
ENDBRANCH   7  33
TORSDOF 5
ENDMDL
MODEL 2
REMARK VINA RESULT:    -7.236      6.386     11.743
REMARK INTER + INTRA:         -12.202
REMARK INTER:                 -10.917
REMARK INTRA:                  -1.285
REMARK UNBOUND:                -2.851
REMARK  Name = CNP0040680_2.pdb
REMARK  7 active torsions:
REMARK  status: ('A' for Active; 'I' for Inactive)
REMARK    1  A    between atoms: C1_1  and  C2_2
REMARK    2  A    between atoms: C5_5  and  N1_6
REMARK    3  A    between atoms: C10_12  and  C11_13
REMARK    4  A    between atoms: C11_13  and  O3_15
REMARK    5  A    between atoms: O3_15  and  C12_16
REMARK    6  A    between atoms: N2_29  and  C23_30
REMARK    7  A    between atoms: C26_33  and  C27_34
REMARK                            x       y       z     vdW  Elec       q    Type
REMARK                         _______ _______ _______ _____ _____    ______ ____
ROOT
ATOM      1  N1  UNL     1      24.120  34.081  40.434  0.00  0.00    +0.000 N 
ATOM      2  C6  UNL     1      22.836  34.363  41.032  0.00  0.00    +0.000 C 
ATOM      3  O1  UNL     1      22.644  34.576  42.257  0.00  0.00    +0.000 OA
ATOM      4  C7  UNL     1      21.869  34.637  39.944  0.00  0.00    +0.000 C 
ATOM      5  C8  UNL     1      20.306  34.707  39.858  0.00  0.00    +0.000 C 
ATOM      6  C9  UNL     1      19.780  33.335  39.384  0.00  0.00    +0.000 C 
ATOM      7  C10 UNL     1      20.230  32.932  38.149  0.00  0.00    +0.000 C 
ATOM      8  C18 UNL     1      21.432  33.741  37.602  0.00  0.00    +0.000 C 
ATOM      9  C19 UNL     1      22.399  33.668  38.852  0.00  0.00    +0.000 C 
ATOM     10  C20 UNL     1      23.858  33.858  39.032  0.00  0.00    +0.000 C 
ATOM     11  O4  UNL     1      24.741  33.630  38.163  0.00  0.00    +0.000 OA
ATOM     12  C21 UNL     1      20.997  35.242  37.467  0.00  0.00    +0.000 C 
ATOM     13  C22 UNL     1      20.455  36.064  36.362  0.00  0.00    +0.000 C 
ATOM     14  O5  UNL     1      20.629  35.855  35.131  0.00  0.00    +0.000 OA
ATOM     15  N2  UNL     1      19.905  37.274  36.925  0.00  0.00    +0.000 N 
ATOM     16  C30 UNL     1      19.807  37.033  38.344  0.00  0.00    +0.000 C 
ATOM     17  O6  UNL     1      19.428  37.880  39.196  0.00  0.00    +0.000 OA
ATOM     18  C31 UNL     1      19.969  35.579  38.583  0.00  0.00    +0.000 C 
ENDROOT
BRANCH   1  23
ATOM     19  C1  UNL     1      29.231  34.239  43.076  0.00  0.00    +0.000 C 
ATOM     20  C2  UNL     1      27.904  34.210  42.378  0.00  0.00    +0.000 A 
ATOM     21  C3  UNL     1      27.319  35.387  41.891  0.00  0.00    +0.000 A 
ATOM     22  C4  UNL     1      26.078  35.346  41.249  0.00  0.00    +0.000 A 
ATOM     23  C5  UNL     1      25.401  34.125  41.087  0.00  0.00    +0.000 A 
ATOM     24  C32 UNL     1      25.989  32.949  41.577  0.00  0.00    +0.000 A 
ATOM     25  C33 UNL     1      27.231  32.990  42.217  0.00  0.00    +0.000 A 
ENDBRANCH   1  23
BRANCH  15  26
ATOM     26  C23 UNL     1      19.521  38.466  36.219  0.00  0.00    +0.000 A 
ATOM     27  C24 UNL     1      20.041  39.715  36.595  0.00  0.00    +0.000 A 
ATOM     28  C25 UNL     1      19.667  40.875  35.911  0.00  0.00    +0.000 A 
ATOM     29  C26 UNL     1      18.755  40.805  34.848  0.00  0.00    +0.000 A 
ATOM     30  C27 UNL     1      18.377  42.042  34.089  0.00  0.00    +0.000 C 
ATOM     31  C28 UNL     1      18.246  39.557  34.459  0.00  0.00    +0.000 A 
ATOM     32  C29 UNL     1      18.621  38.397  35.142  0.00  0.00    +0.000 A 
ENDBRANCH  15  26
BRANCH   7  33
ATOM     33  C11 UNL     1      19.689  31.757  37.445  0.00  0.00    +0.000 C 
ATOM     34  O2  UNL     1      19.711  31.715  36.183  0.00  0.00    +0.000 OA
BRANCH  33  35
ATOM     35  O3  UNL     1      19.226  30.666  38.192  0.00  0.00    +0.000 OA
BRANCH  35  36
ATOM     36  C12 UNL     1      17.881  30.352  38.436  0.00  0.00    +0.000 A 
ATOM     37  C13 UNL     1      17.592  29.254  39.256  0.00  0.00    +0.000 A 
ATOM     38  C14 UNL     1      16.267  28.892  39.520  0.00  0.00    +0.000 A 
ATOM     39  C15 UNL     1      15.218  29.639  38.980  0.00  0.00    +0.000 A 
ATOM     40  C16 UNL     1      15.493  30.752  38.182  0.00  0.00    +0.000 A 
ATOM     41  C17 UNL     1      16.818  31.117  37.916  0.00  0.00    +0.000 A 
ENDBRANCH  35  36
ENDBRANCH  33  35
ENDBRANCH   7  33
TORSDOF 5
ENDMDL
MODEL 3
REMARK VINA RESULT:    -6.770      6.529     10.833
REMARK INTER + INTRA:         -11.600
REMARK INTER:                 -10.058
REMARK INTRA:                  -1.542
REMARK UNBOUND:                -2.851
REMARK  Name = CNP0040680_2.pdb
REMARK  7 active torsions:
REMARK  status: ('A' for Active; 'I' for Inactive)
REMARK    1  A    between atoms: C1_1  and  C2_2
REMARK    2  A    between atoms: C5_5  and  N1_6
REMARK    3  A    between atoms: C10_12  and  C11_13
REMARK    4  A    between atoms: C11_13  and  O3_15
REMARK    5  A    between atoms: O3_15  and  C12_16
REMARK    6  A    between atoms: N2_29  and  C23_30
REMARK    7  A    between atoms: C26_33  and  C27_34
REMARK                            x       y       z     vdW  Elec       q    Type
REMARK                         _______ _______ _______ _____ _____    ______ ____
ROOT
ATOM      1  N1  UNL     1      20.591  37.238  36.772  0.00  0.00    +0.000 N 
ATOM      2  C6  UNL     1      21.488  36.361  36.057  0.00  0.00    +0.000 C 
ATOM      3  O1  UNL     1      21.775  36.465  34.836  0.00  0.00    +0.000 OA
ATOM      4  C7  UNL     1      22.210  35.531  37.047  0.00  0.00    +0.000 C 
ATOM      5  C8  UNL     1      23.064  34.219  36.965  0.00  0.00    +0.000 C 
ATOM      6  C9  UNL     1      22.147  33.017  37.279  0.00  0.00    +0.000 C 
ATOM      7  C10 UNL     1      21.565  33.036  38.525  0.00  0.00    +0.000 C 
ATOM      8  C18 UNL     1      21.649  34.399  39.257  0.00  0.00    +0.000 C 
ATOM      9  C19 UNL     1      21.101  35.352  38.120  0.00  0.00    +0.000 C 
ATOM     10  C20 UNL     1      20.525  36.718  38.117  0.00  0.00    +0.000 C 
ATOM     11  O4  UNL     1      19.875  37.243  39.059  0.00  0.00    +0.000 OA
ATOM     12  C21 UNL     1      23.162  34.764  39.449  0.00  0.00    +0.000 C 
ATOM     13  C22 UNL     1      24.141  34.569  40.543  0.00  0.00    +0.000 C 
ATOM     14  O5  UNL     1      23.866  34.451  41.768  0.00  0.00    +0.000 OA
ATOM     15  N2  UNL     1      25.465  34.782  40.009  0.00  0.00    +0.000 N 
ATOM     16  C30 UNL     1      25.313  34.764  38.575  0.00  0.00    +0.000 C 
ATOM     17  O6  UNL     1      26.240  34.977  37.749  0.00  0.00    +0.000 OA
ATOM     18  C31 UNL     1      23.981  34.202  38.254  0.00  0.00    +0.000 C 
ENDROOT
BRANCH   1  23
ATOM     19  C1  UNL     1      18.161  42.038  34.727  0.00  0.00    +0.000 C 
ATOM     20  C2  UNL     1      18.795  40.794  35.274  0.00  0.00    +0.000 A 
ATOM     21  C3  UNL     1      19.754  40.862  36.295  0.00  0.00    +0.000 A 
ATOM     22  C4  UNL     1      20.342  39.694  36.790  0.00  0.00    +0.000 A 
ATOM     23  C5  UNL     1      19.981  38.440  36.269  0.00  0.00    +0.000 A 
ATOM     24  C32 UNL     1      19.022  38.376  35.246  0.00  0.00    +0.000 A 
ATOM     25  C33 UNL     1      18.432  39.543  34.753  0.00  0.00    +0.000 A 
ENDBRANCH   1  23
BRANCH  15  26
ATOM     26  C23 UNL     1      26.683  34.961  40.752  0.00  0.00    +0.000 A 
ATOM     27  C24 UNL     1      27.263  36.234  40.871  0.00  0.00    +0.000 A 
ATOM     28  C25 UNL     1      28.449  36.409  41.590  0.00  0.00    +0.000 A 
ATOM     29  C26 UNL     1      29.081  35.310  42.190  0.00  0.00    +0.000 A 
ATOM     30  C27 UNL     1      30.334  35.498  42.992  0.00  0.00    +0.000 C 
ATOM     31  C28 UNL     1      28.495  34.039  42.086  0.00  0.00    +0.000 A 
ATOM     32  C29 UNL     1      27.309  33.864  41.368  0.00  0.00    +0.000 A 
ENDBRANCH  15  26
BRANCH   7  33
ATOM     33  C11 UNL     1      20.825  31.891  39.080  0.00  0.00    +0.000 C 
ATOM     34  O2  UNL     1      21.448  30.854  39.441  0.00  0.00    +0.000 OA
BRANCH  33  35
ATOM     35  O3  UNL     1      19.441  32.000  39.269  0.00  0.00    +0.000 OA
BRANCH  35  36
ATOM     36  C12 UNL     1      18.455  31.619  38.347  0.00  0.00    +0.000 A 
ATOM     37  C13 UNL     1      17.226  31.159  38.839  0.00  0.00    +0.000 A 
ATOM     38  C14 UNL     1      16.215  30.756  37.961  0.00  0.00    +0.000 A 
ATOM     39  C15 UNL     1      16.418  30.826  36.581  0.00  0.00    +0.000 A 
ATOM     40  C16 UNL     1      17.629  31.307  36.078  0.00  0.00    +0.000 A 
ATOM     41  C17 UNL     1      18.643  31.712  36.955  0.00  0.00    +0.000 A 
ENDBRANCH  35  36
ENDBRANCH  33  35
ENDBRANCH   7  33
TORSDOF 5
ENDMDL
MODEL 4
REMARK VINA RESULT:    -6.645      3.631      9.158
REMARK INTER + INTRA:         -11.438
REMARK INTER:                  -8.930
REMARK INTRA:                  -2.507
REMARK UNBOUND:                -2.851
REMARK  Name = CNP0040680_2.pdb
REMARK  7 active torsions:
REMARK  status: ('A' for Active; 'I' for Inactive)
REMARK    1  A    between atoms: C1_1  and  C2_2
REMARK    2  A    between atoms: C5_5  and  N1_6
REMARK    3  A    between atoms: C10_12  and  C11_13
REMARK    4  A    between atoms: C11_13  and  O3_15
REMARK    5  A    between atoms: O3_15  and  C12_16
REMARK    6  A    between atoms: N2_29  and  C23_30
REMARK    7  A    between atoms: C26_33  and  C27_34
REMARK                            x       y       z     vdW  Elec       q    Type
REMARK                         _______ _______ _______ _____ _____    ______ ____
ROOT
ATOM      1  N1  UNL     1      21.979  35.717  38.002  0.00  0.00    +0.000 N 
ATOM      2  C6  UNL     1      20.870  36.579  38.336  0.00  0.00    +0.000 C 
ATOM      3  O1  UNL     1      20.520  36.880  39.508  0.00  0.00    +0.000 OA
ATOM      4  C7  UNL     1      20.419  37.256  37.099  0.00  0.00    +0.000 C 
ATOM      5  C8  UNL     1      19.131  38.049  36.689  0.00  0.00    +0.000 C 
ATOM      6  C9  UNL     1      18.157  37.077  35.989  0.00  0.00    +0.000 C 
ATOM      7  C10 UNL     1      18.643  36.487  34.846  0.00  0.00    +0.000 C 
ATOM      8  C18 UNL     1      20.172  36.627  34.644  0.00  0.00    +0.000 C 
ATOM      9  C19 UNL     1      20.679  36.131  36.059  0.00  0.00    +0.000 C 
ATOM     10  C20 UNL     1      21.975  35.618  36.562  0.00  0.00    +0.000 C 
ATOM     11  O4  UNL     1      22.827  34.986  35.883  0.00  0.00    +0.000 OA
ATOM     12  C21 UNL     1      20.522  38.153  34.560  0.00  0.00    +0.000 C 
ATOM     13  C22 UNL     1      20.691  39.114  33.446  0.00  0.00    +0.000 C 
ATOM     14  O5  UNL     1      21.028  38.825  32.266  0.00  0.00    +0.000 OA
ATOM     15  N2  UNL     1      20.647  40.450  33.989  0.00  0.00    +0.000 N 
ATOM     16  C30 UNL     1      20.124  40.309  35.327  0.00  0.00    +0.000 C 
ATOM     17  O6  UNL     1      19.992  41.250  36.153  0.00  0.00    +0.000 OA
ATOM     18  C31 UNL     1      19.538  38.955  35.458  0.00  0.00    +0.000 C 
ENDROOT
BRANCH   1  23
ATOM     19  C1  UNL     1      25.869  33.506  41.620  0.00  0.00    +0.000 C 
ATOM     20  C2  UNL     1      24.845  34.081  40.688  0.00  0.00    +0.000 A 
ATOM     21  C3  UNL     1      23.512  33.648  40.726  0.00  0.00    +0.000 A 
ATOM     22  C4  UNL     1      22.569  34.187  39.847  0.00  0.00    +0.000 A 
ATOM     23  C5  UNL     1      22.946  35.167  38.913  0.00  0.00    +0.000 A 
ATOM     24  C32 UNL     1      24.281  35.597  38.877  0.00  0.00    +0.000 A 
ATOM     25  C33 UNL     1      25.224  35.059  39.758  0.00  0.00    +0.000 A 
ENDBRANCH   1  23
BRANCH  15  26
ATOM     26  C23 UNL     1      21.030  41.669  33.331  0.00  0.00    +0.000 A 
ATOM     27  C24 UNL     1      20.066  42.643  33.021  0.00  0.00    +0.000 A 
ATOM     28  C25 UNL     1      20.436  43.828  32.378  0.00  0.00    +0.000 A 
ATOM     29  C26 UNL     1      21.774  44.051  32.023  0.00  0.00    +0.000 A 
ATOM     30  C27 UNL     1      22.182  45.336  31.365  0.00  0.00    +0.000 C 
ATOM     31  C28 UNL     1      22.742  43.088  32.346  0.00  0.00    +0.000 A 
ATOM     32  C29 UNL     1      22.372  41.904  32.989  0.00  0.00    +0.000 A 
ENDBRANCH  15  26
BRANCH   7  33
ATOM     33  C11 UNL     1      17.802  35.691  33.937  0.00  0.00    +0.000 C 
ATOM     34  O2  UNL     1      17.858  34.430  33.970  0.00  0.00    +0.000 OA
BRANCH  33  35
ATOM     35  O3  UNL     1      16.891  36.348  33.099  0.00  0.00    +0.000 OA
BRANCH  35  36
ATOM     36  C12 UNL     1      17.032  37.650  32.597  0.00  0.00    +0.000 A 
ATOM     37  C13 UNL     1      16.427  38.702  33.298  0.00  0.00    +0.000 A 
ATOM     38  C14 UNL     1      16.528  40.017  32.832  0.00  0.00    +0.000 A 
ATOM     39  C15 UNL     1      17.252  40.293  31.670  0.00  0.00    +0.000 A 
ATOM     40  C16 UNL     1      17.882  39.257  30.977  0.00  0.00    +0.000 A 
ATOM     41  C17 UNL     1      17.783  37.939  31.441  0.00  0.00    +0.000 A 
ENDBRANCH  35  36
ENDBRANCH  33  35
ENDBRANCH   7  33
TORSDOF 5
ENDMDL
MODEL 5
REMARK VINA RESULT:    -6.638      1.386      2.046
REMARK INTER + INTRA:         -11.429
REMARK INTER:                  -9.631
REMARK INTRA:                  -1.798
REMARK UNBOUND:                -2.851
REMARK  Name = CNP0040680_2.pdb
REMARK  7 active torsions:
REMARK  status: ('A' for Active; 'I' for Inactive)
REMARK    1  A    between atoms: C1_1  and  C2_2
REMARK    2  A    between atoms: C5_5  and  N1_6
REMARK    3  A    between atoms: C10_12  and  C11_13
REMARK    4  A    between atoms: C11_13  and  O3_15
REMARK    5  A    between atoms: O3_15  and  C12_16
REMARK    6  A    between atoms: N2_29  and  C23_30
REMARK    7  A    between atoms: C26_33  and  C27_34
REMARK                            x       y       z     vdW  Elec       q    Type
REMARK                         _______ _______ _______ _____ _____    ______ ____
ROOT
ATOM      1  N1  UNL     1      23.360  45.840  32.520  0.00  0.00    +0.000 N 
ATOM      2  C6  UNL     1      23.575  44.563  31.882  0.00  0.00    +0.000 C 
ATOM      3  O1  UNL     1      24.660  44.191  31.363  0.00  0.00    +0.000 OA
ATOM      4  C7  UNL     1      22.423  43.688  32.197  0.00  0.00    +0.000 C 
ATOM      5  C8  UNL     1      21.874  42.342  31.610  0.00  0.00    +0.000 C 
ATOM      6  C9  UNL     1      20.779  42.670  30.573  0.00  0.00    +0.000 C 
ATOM      7  C10 UNL     1      19.697  43.361  31.065  0.00  0.00    +0.000 C 
ATOM      8  C18 UNL     1      19.909  43.983  32.468  0.00  0.00    +0.000 C 
ATOM      9  C19 UNL     1      21.278  44.737  32.226  0.00  0.00    +0.000 C 
ATOM     10  C20 UNL     1      21.972  45.849  32.918  0.00  0.00    +0.000 C 
ATOM     11  O4  UNL     1      21.413  46.782  33.553  0.00  0.00    +0.000 OA
ATOM     12  C21 UNL     1      20.216  42.825  33.480  0.00  0.00    +0.000 C 
ATOM     13  C22 UNL     1      19.389  42.014  34.403  0.00  0.00    +0.000 C 
ATOM     14  O5  UNL     1      18.296  42.369  34.920  0.00  0.00    +0.000 OA
ATOM     15  N2  UNL     1      20.158  40.861  34.806  0.00  0.00    +0.000 N 
ATOM     16  C30 UNL     1      21.271  40.797  33.889  0.00  0.00    +0.000 C 
ATOM     17  O6  UNL     1      22.208  39.958  33.951  0.00  0.00    +0.000 OA
ATOM     18  C31 UNL     1      20.984  41.691  32.744  0.00  0.00    +0.000 C 
ENDROOT
BRANCH   1  23
ATOM     19  C1  UNL     1      27.320  49.861  33.646  0.00  0.00    +0.000 C 
ATOM     20  C2  UNL     1      26.292  48.813  33.338  0.00  0.00    +0.000 A 
ATOM     21  C3  UNL     1      25.616  48.806  32.109  0.00  0.00    +0.000 A 
ATOM     22  C4  UNL     1      24.655  47.828  31.838  0.00  0.00    +0.000 A 
ATOM     23  C5  UNL     1      24.354  46.843  32.793  0.00  0.00    +0.000 A 
ATOM     24  C32 UNL     1      25.031  46.854  34.023  0.00  0.00    +0.000 A 
ATOM     25  C33 UNL     1      25.994  47.831  34.293  0.00  0.00    +0.000 A 
ENDBRANCH   1  23
BRANCH  15  26
ATOM     26  C23 UNL     1      19.868  39.956  35.884  0.00  0.00    +0.000 A 
ATOM     27  C24 UNL     1      20.160  40.312  37.211  0.00  0.00    +0.000 A 
ATOM     28  C25 UNL     1      19.881  39.433  38.260  0.00  0.00    +0.000 A 
ATOM     29  C26 UNL     1      19.318  38.175  37.998  0.00  0.00    +0.000 A 
ATOM     30  C27 UNL     1      18.984  37.242  39.123  0.00  0.00    +0.000 C 
ATOM     31  C28 UNL     1      19.010  37.822  36.676  0.00  0.00    +0.000 A 
ATOM     32  C29 UNL     1      19.288  38.702  35.626  0.00  0.00    +0.000 A 
ENDBRANCH  15  26
BRANCH   7  33
ATOM     33  C11 UNL     1      18.471  43.590  30.283  0.00  0.00    +0.000 C 
ATOM     34  O2  UNL     1      18.132  42.766  29.387  0.00  0.00    +0.000 OA
BRANCH  33  35
ATOM     35  O3  UNL     1      17.654  44.684  30.598  0.00  0.00    +0.000 OA
BRANCH  35  36
ATOM     36  C12 UNL     1      16.382  44.614  31.187  0.00  0.00    +0.000 A 
ATOM     37  C13 UNL     1      16.197  43.744  32.269  0.00  0.00    +0.000 A 
ATOM     38  C14 UNL     1      14.946  43.629  32.883  0.00  0.00    +0.000 A 
ATOM     39  C15 UNL     1      13.872  44.399  32.431  0.00  0.00    +0.000 A 
ATOM     40  C16 UNL     1      14.050  45.290  31.370  0.00  0.00    +0.000 A 
ATOM     41  C17 UNL     1      15.302  45.407  30.754  0.00  0.00    +0.000 A 
ENDBRANCH  35  36
ENDBRANCH  33  35
ENDBRANCH   7  33
TORSDOF 5
ENDMDL
MODEL 6
REMARK VINA RESULT:    -6.524      6.414     11.875
REMARK INTER + INTRA:         -11.281
REMARK INTER:                  -9.119
REMARK INTRA:                  -2.163
REMARK UNBOUND:                -2.851
REMARK  Name = CNP0040680_2.pdb
REMARK  7 active torsions:
REMARK  status: ('A' for Active; 'I' for Inactive)
REMARK    1  A    between atoms: C1_1  and  C2_2
REMARK    2  A    between atoms: C5_5  and  N1_6
REMARK    3  A    between atoms: C10_12  and  C11_13
REMARK    4  A    between atoms: C11_13  and  O3_15
REMARK    5  A    between atoms: O3_15  and  C12_16
REMARK    6  A    between atoms: N2_29  and  C23_30
REMARK    7  A    between atoms: C26_33  and  C27_34
REMARK                            x       y       z     vdW  Elec       q    Type
REMARK                         _______ _______ _______ _____ _____    ______ ____
ROOT
ATOM      1  N1  UNL     1      24.157  34.201  40.406  0.00  0.00    +0.000 N 
ATOM      2  C6  UNL     1      22.871  34.468  41.005  0.00  0.00    +0.000 C 
ATOM      3  O1  UNL     1      22.677  34.673  42.232  0.00  0.00    +0.000 OA
ATOM      4  C7  UNL     1      21.902  34.740  39.919  0.00  0.00    +0.000 C 
ATOM      5  C8  UNL     1      20.338  34.796  39.833  0.00  0.00    +0.000 C 
ATOM      6  C9  UNL     1      19.823  33.423  39.352  0.00  0.00    +0.000 C 
ATOM      7  C10 UNL     1      20.277  33.030  38.115  0.00  0.00    +0.000 C 
ATOM      8  C18 UNL     1      21.472  33.852  37.572  0.00  0.00    +0.000 C 
ATOM      9  C19 UNL     1      22.439  33.781  38.822  0.00  0.00    +0.000 C 
ATOM     10  C20 UNL     1      23.897  33.983  39.003  0.00  0.00    +0.000 C 
ATOM     11  O4  UNL     1      24.781  33.767  38.133  0.00  0.00    +0.000 OA
ATOM     12  C21 UNL     1      21.024  35.350  37.445  0.00  0.00    +0.000 C 
ATOM     13  C22 UNL     1      20.474  36.174  36.345  0.00  0.00    +0.000 C 
ATOM     14  O5  UNL     1      20.650  35.973  35.113  0.00  0.00    +0.000 OA
ATOM     15  N2  UNL     1      19.914  37.376  36.914  0.00  0.00    +0.000 N 
ATOM     16  C30 UNL     1      19.819  37.126  38.332  0.00  0.00    +0.000 C 
ATOM     17  O6  UNL     1      19.432  37.965  39.188  0.00  0.00    +0.000 OA
ATOM     18  C31 UNL     1      19.993  35.673  38.563  0.00  0.00    +0.000 C 
ENDROOT
BRANCH   1  23
ATOM     19  C1  UNL     1      29.266  34.390  43.048  0.00  0.00    +0.000 C 
ATOM     20  C2  UNL     1      27.940  34.352  42.350  0.00  0.00    +0.000 A 
ATOM     21  C3  UNL     1      27.358  35.523  41.841  0.00  0.00    +0.000 A 
ATOM     22  C4  UNL     1      26.118  35.474  41.199  0.00  0.00    +0.000 A 
ATOM     23  C5  UNL     1      25.437  34.253  41.059  0.00  0.00    +0.000 A 
ATOM     24  C32 UNL     1      26.021  33.083  41.571  0.00  0.00    +0.000 A 
ATOM     25  C33 UNL     1      27.263  33.132  42.211  0.00  0.00    +0.000 A 
ENDBRANCH   1  23
BRANCH  15  26
ATOM     26  C23 UNL     1      19.520  38.568  36.214  0.00  0.00    +0.000 A 
ATOM     27  C24 UNL     1      18.652  38.491  35.112  0.00  0.00    +0.000 A 
ATOM     28  C25 UNL     1      18.270  39.649  34.428  0.00  0.00    +0.000 A 
ATOM     29  C26 UNL     1      18.760  40.900  34.828  0.00  0.00    +0.000 A 
ATOM     30  C27 UNL     1      18.326  42.149  34.120  0.00  0.00    +0.000 C 
ATOM     31  C28 UNL     1      19.614  40.982  35.938  0.00  0.00    +0.000 A 
ATOM     32  C29 UNL     1      19.996  39.825  36.622  0.00  0.00    +0.000 A 
ENDBRANCH  15  26
BRANCH   7  33
ATOM     33  C11 UNL     1      19.746  31.855  37.404  0.00  0.00    +0.000 C 
ATOM     34  O2  UNL     1      18.830  31.998  36.548  0.00  0.00    +0.000 OA
BRANCH  33  35
ATOM     35  O3  UNL     1      20.322  30.599  37.637  0.00  0.00    +0.000 OA
BRANCH  35  36
ATOM     36  C12 UNL     1      21.557  30.366  38.261  0.00  0.00    +0.000 A 
ATOM     37  C13 UNL     1      21.572  30.153  39.646  0.00  0.00    +0.000 A 
ATOM     38  C14 UNL     1      22.779  29.929  40.318  0.00  0.00    +0.000 A 
ATOM     39  C15 UNL     1      23.979  29.898  39.605  0.00  0.00    +0.000 A 
ATOM     40  C16 UNL     1      23.975  30.083  38.221  0.00  0.00    +0.000 A 
ATOM     41  C17 UNL     1      22.768  30.307  37.545  0.00  0.00    +0.000 A 
ENDBRANCH  35  36
ENDBRANCH  33  35
ENDBRANCH   7  33
TORSDOF 5
ENDMDL
MODEL 7
REMARK VINA RESULT:    -6.521      6.440     11.094
REMARK INTER + INTRA:         -11.277
REMARK INTER:                  -8.931
REMARK INTRA:                  -2.347
REMARK UNBOUND:                -2.851
REMARK  Name = CNP0040680_2.pdb
REMARK  7 active torsions:
REMARK  status: ('A' for Active; 'I' for Inactive)
REMARK    1  A    between atoms: C1_1  and  C2_2
REMARK    2  A    between atoms: C5_5  and  N1_6
REMARK    3  A    between atoms: C10_12  and  C11_13
REMARK    4  A    between atoms: C11_13  and  O3_15
REMARK    5  A    between atoms: O3_15  and  C12_16
REMARK    6  A    between atoms: N2_29  and  C23_30
REMARK    7  A    between atoms: C26_33  and  C27_34
REMARK                            x       y       z     vdW  Elec       q    Type
REMARK                         _______ _______ _______ _____ _____    ______ ____
ROOT
ATOM      1  N1  UNL     1      20.017  37.373  36.407  0.00  0.00    +0.000 N 
ATOM      2  C6  UNL     1      20.865  36.438  35.706  0.00  0.00    +0.000 C 
ATOM      3  O1  UNL     1      21.187  36.529  34.492  0.00  0.00    +0.000 OA
ATOM      4  C7  UNL     1      21.503  35.552  36.706  0.00  0.00    +0.000 C 
ATOM      5  C8  UNL     1      22.262  34.182  36.632  0.00  0.00    +0.000 C 
ATOM      6  C9  UNL     1      21.255  33.047  36.916  0.00  0.00    +0.000 C 
ATOM      7  C10 UNL     1      20.647  33.101  38.148  0.00  0.00    +0.000 C 
ATOM      8  C18 UNL     1      20.811  34.449  38.893  0.00  0.00    +0.000 C 
ATOM      9  C19 UNL     1      20.359  35.446  37.752  0.00  0.00    +0.000 C 
ATOM     10  C20 UNL     1      19.883  36.850  37.746  0.00  0.00    +0.000 C 
ATOM     11  O4  UNL     1      19.251  37.414  38.678  0.00  0.00    +0.000 OA
ATOM     12  C21 UNL     1      22.342  34.704  39.122  0.00  0.00    +0.000 C 
ATOM     13  C22 UNL     1      23.279  34.432  40.236  0.00  0.00    +0.000 C 
ATOM     14  O5  UNL     1      22.969  34.326  41.453  0.00  0.00    +0.000 OA
ATOM     15  N2  UNL     1      24.627  34.553  39.734  0.00  0.00    +0.000 N 
ATOM     16  C30 UNL     1      24.507  34.554  38.296  0.00  0.00    +0.000 C 
ATOM     17  O6  UNL     1      25.465  34.706  37.493  0.00  0.00    +0.000 OA
ATOM     18  C31 UNL     1      23.145  34.091  37.940  0.00  0.00    +0.000 C 
ENDROOT
BRANCH   1  23
ATOM     19  C1  UNL     1      17.964  42.367  34.415  0.00  0.00    +0.000 C 
ATOM     20  C2  UNL     1      18.499  41.060  34.919  0.00  0.00    +0.000 A 
ATOM     21  C3  UNL     1      18.119  39.847  34.326  0.00  0.00    +0.000 A 
ATOM     22  C4  UNL     1      18.620  38.636  34.811  0.00  0.00    +0.000 A 
ATOM     23  C5  UNL     1      19.507  38.619  35.901  0.00  0.00    +0.000 A 
ATOM     24  C32 UNL     1      19.883  39.834  36.494  0.00  0.00    +0.000 A 
ATOM     25  C33 UNL     1      19.384  41.046  36.007  0.00  0.00    +0.000 A 
ENDBRANCH   1  23
BRANCH  15  26
ATOM     26  C23 UNL     1      25.837  34.638  40.505  0.00  0.00    +0.000 A 
ATOM     27  C24 UNL     1      26.457  35.880  40.720  0.00  0.00    +0.000 A 
ATOM     28  C25 UNL     1      27.635  35.965  41.467  0.00  0.00    +0.000 A 
ATOM     29  C26 UNL     1      28.220  34.807  41.999  0.00  0.00    +0.000 A 
ATOM     30  C27 UNL     1      29.465  34.896  42.830  0.00  0.00    +0.000 C 
ATOM     31  C28 UNL     1      27.595  33.567  41.799  0.00  0.00    +0.000 A 
ATOM     32  C29 UNL     1      26.417  33.482  41.053  0.00  0.00    +0.000 A 
ENDBRANCH  15  26
BRANCH   7  33
ATOM     33  C11 UNL     1      19.814  32.009  38.677  0.00  0.00    +0.000 C 
ATOM     34  O2  UNL     1      18.641  31.843  38.240  0.00  0.00    +0.000 OA
BRANCH  33  35
ATOM     35  O3  UNL     1      20.366  31.118  39.607  0.00  0.00    +0.000 OA
BRANCH  35  36
ATOM     36  C12 UNL     1      21.726  30.796  39.726  0.00  0.00    +0.000 A 
ATOM     37  C13 UNL     1      22.376  31.090  40.933  0.00  0.00    +0.000 A 
ATOM     38  C14 UNL     1      23.734  30.799  41.097  0.00  0.00    +0.000 A 
ATOM     39  C15 UNL     1      24.450  30.195  40.061  0.00  0.00    +0.000 A 
ATOM     40  C16 UNL     1      23.807  29.874  38.863  0.00  0.00    +0.000 A 
ATOM     41  C17 UNL     1      22.447  30.162  38.696  0.00  0.00    +0.000 A 
ENDBRANCH  35  36
ENDBRANCH  33  35
ENDBRANCH   7  33
TORSDOF 5
ENDMDL
MODEL 8
REMARK VINA RESULT:    -6.503      7.285     11.842
REMARK INTER + INTRA:         -11.255
REMARK INTER:                  -8.527
REMARK INTRA:                  -2.728
REMARK UNBOUND:                -2.851
REMARK  Name = CNP0040680_2.pdb
REMARK  7 active torsions:
REMARK  status: ('A' for Active; 'I' for Inactive)
REMARK    1  A    between atoms: C1_1  and  C2_2
REMARK    2  A    between atoms: C5_5  and  N1_6
REMARK    3  A    between atoms: C10_12  and  C11_13
REMARK    4  A    between atoms: C11_13  and  O3_15
REMARK    5  A    between atoms: O3_15  and  C12_16
REMARK    6  A    between atoms: N2_29  and  C23_30
REMARK    7  A    between atoms: C26_33  and  C27_34
REMARK                            x       y       z     vdW  Elec       q    Type
REMARK                         _______ _______ _______ _____ _____    ______ ____
ROOT
ATOM      1  N1  UNL     1      21.282  37.164  36.964  0.00  0.00    +0.000 N 
ATOM      2  C6  UNL     1      22.265  36.396  36.237  0.00  0.00    +0.000 C 
ATOM      3  O1  UNL     1      22.516  36.526  35.011  0.00  0.00    +0.000 OA
ATOM      4  C7  UNL     1      23.098  35.663  37.218  0.00  0.00    +0.000 C 
ATOM      5  C8  UNL     1      24.100  34.461  37.125  0.00  0.00    +0.000 C 
ATOM      6  C9  UNL     1      23.339  33.161  37.460  0.00  0.00    +0.000 C 
ATOM      7  C10 UNL     1      22.780  33.118  38.715  0.00  0.00    +0.000 C 
ATOM      8  C18 UNL     1      22.714  34.485  39.441  0.00  0.00    +0.000 C 
ATOM      9  C19 UNL     1      22.036  35.360  38.311  0.00  0.00    +0.000 C 
ATOM     10  C20 UNL     1      21.301  36.647  38.312  0.00  0.00    +0.000 C 
ATOM     11  O4  UNL     1      20.611  37.097  39.264  0.00  0.00    +0.000 OA
ATOM     12  C21 UNL     1      24.175  35.029  39.605  0.00  0.00    +0.000 C 
ATOM     13  C22 UNL     1      25.189  34.958  40.681  0.00  0.00    +0.000 C 
ATOM     14  O5  UNL     1      24.952  34.816  41.911  0.00  0.00    +0.000 OA
ATOM     15  N2  UNL     1      26.469  35.325  40.124  0.00  0.00    +0.000 N 
ATOM     16  C30 UNL     1      26.296  35.280  38.692  0.00  0.00    +0.000 C 
ATOM     17  O6  UNL     1      27.176  35.597  37.849  0.00  0.00    +0.000 OA
ATOM     18  C31 UNL     1      25.034  34.561  38.397  0.00  0.00    +0.000 C 
ENDROOT
BRANCH   1  23
ATOM     19  C1  UNL     1      18.246  41.647  35.014  0.00  0.00    +0.000 C 
ATOM     20  C2  UNL     1      19.036  40.472  35.508  0.00  0.00    +0.000 A 
ATOM     21  C3  UNL     1      18.719  39.168  35.101  0.00  0.00    +0.000 A 
ATOM     22  C4  UNL     1      19.459  38.081  35.576  0.00  0.00    +0.000 A 
ATOM     23  C5  UNL     1      20.525  38.281  36.469  0.00  0.00    +0.000 A 
ATOM     24  C32 UNL     1      20.838  39.588  36.876  0.00  0.00    +0.000 A 
ATOM     25  C33 UNL     1      20.100  40.675  36.399  0.00  0.00    +0.000 A 
ENDBRANCH   1  23
BRANCH  15  26
ATOM     26  C23 UNL     1      27.670  35.651  40.843  0.00  0.00    +0.000 A 
ATOM     27  C24 UNL     1      28.471  34.635  41.389  0.00  0.00    +0.000 A 
ATOM     28  C25 UNL     1      29.637  34.950  42.091  0.00  0.00    +0.000 A 
ATOM     29  C26 UNL     1      30.013  36.289  42.272  0.00  0.00    +0.000 A 
ATOM     30  C27 UNL     1      31.282  36.632  42.994  0.00  0.00    +0.000 C 
ATOM     31  C28 UNL     1      29.224  37.306  41.714  0.00  0.00    +0.000 A 
ATOM     32  C29 UNL     1      28.058  36.991  41.011  0.00  0.00    +0.000 A 
ENDBRANCH  15  26
BRANCH   7  33
ATOM     33  C11 UNL     1      22.191  31.896  39.288  0.00  0.00    +0.000 C 
ATOM     34  O2  UNL     1      20.939  31.734  39.272  0.00  0.00    +0.000 OA
BRANCH  33  35
ATOM     35  O3  UNL     1      23.039  30.893  39.776  0.00  0.00    +0.000 OA
BRANCH  35  36
ATOM     36  C12 UNL     1      24.261  31.101  40.432  0.00  0.00    +0.000 A 
ATOM     37  C13 UNL     1      25.429  31.161  39.661  0.00  0.00    +0.000 A 
ATOM     38  C14 UNL     1      26.674  31.355  40.269  0.00  0.00    +0.000 A 
ATOM     39  C15 UNL     1      26.758  31.509  41.654  0.00  0.00    +0.000 A 
ATOM     40  C16 UNL     1      25.598  31.478  42.432  0.00  0.00    +0.000 A 
ATOM     41  C17 UNL     1      24.351  31.285  41.826  0.00  0.00    +0.000 A 
ENDBRANCH  35  36
ENDBRANCH  33  35
ENDBRANCH   7  33
TORSDOF 5
ENDMDL
MODEL 9
REMARK VINA RESULT:    -6.235      2.773      6.272
REMARK INTER + INTRA:         -10.909
REMARK INTER:                  -9.202
REMARK INTRA:                  -1.707
REMARK UNBOUND:                -2.851
REMARK  Name = CNP0040680_2.pdb
REMARK  7 active torsions:
REMARK  status: ('A' for Active; 'I' for Inactive)
REMARK    1  A    between atoms: C1_1  and  C2_2
REMARK    2  A    between atoms: C5_5  and  N1_6
REMARK    3  A    between atoms: C10_12  and  C11_13
REMARK    4  A    between atoms: C11_13  and  O3_15
REMARK    5  A    between atoms: O3_15  and  C12_16
REMARK    6  A    between atoms: N2_29  and  C23_30
REMARK    7  A    between atoms: C26_33  and  C27_34
REMARK                            x       y       z     vdW  Elec       q    Type
REMARK                         _______ _______ _______ _____ _____    ______ ____
ROOT
ATOM      1  N1  UNL     1      21.685  42.918  32.562  0.00  0.00    +0.000 N 
ATOM      2  C6  UNL     1      20.295  43.166  32.867  0.00  0.00    +0.000 C 
ATOM      3  O1  UNL     1      19.663  44.206  32.546  0.00  0.00    +0.000 OA
ATOM      4  C7  UNL     1      19.693  41.900  33.344  0.00  0.00    +0.000 C 
ATOM      5  C8  UNL     1      18.372  41.532  34.103  0.00  0.00    +0.000 C 
ATOM      6  C9  UNL     1      18.682  41.443  35.613  0.00  0.00    +0.000 C 
ATOM      7  C10 UNL     1      19.619  40.499  35.962  0.00  0.00    +0.000 C 
ATOM      8  C18 UNL     1      20.441  39.934  34.777  0.00  0.00    +0.000 C 
ATOM      9  C19 UNL     1      20.904  41.285  34.099  0.00  0.00    +0.000 C 
ATOM     10  C20 UNL     1      21.994  41.640  33.158  0.00  0.00    +0.000 C 
ATOM     11  O4  UNL     1      23.105  41.055  33.068  0.00  0.00    +0.000 OA
ATOM     12  C21 UNL     1      19.451  39.250  33.770  0.00  0.00    +0.000 C 
ATOM     13  C22 UNL     1      18.969  37.864  33.577  0.00  0.00    +0.000 C 
ATOM     14  O5  UNL     1      19.586  36.815  33.904  0.00  0.00    +0.000 OA
ATOM     15  N2  UNL     1      17.797  37.906  32.735  0.00  0.00    +0.000 N 
ATOM     16  C30 UNL     1      17.386  39.289  32.709  0.00  0.00    +0.000 C 
ATOM     17  O6  UNL     1      16.430  39.744  32.028  0.00  0.00    +0.000 OA
ATOM     18  C31 UNL     1      18.093  40.006  33.795  0.00  0.00    +0.000 C 
ENDROOT
BRANCH   1  23
ATOM     19  C1  UNL     1      25.110  46.196  29.299  0.00  0.00    +0.000 C 
ATOM     20  C2  UNL     1      24.219  45.330  30.139  0.00  0.00    +0.000 A 
ATOM     21  C3  UNL     1      23.314  44.438  29.546  0.00  0.00    +0.000 A 
ATOM     22  C4  UNL     1      22.484  43.642  30.341  0.00  0.00    +0.000 A 
ATOM     23  C5  UNL     1      22.544  43.730  31.742  0.00  0.00    +0.000 A 
ATOM     24  C32 UNL     1      23.449  44.625  32.332  0.00  0.00    +0.000 A 
ATOM     25  C33 UNL     1      24.281  45.419  31.537  0.00  0.00    +0.000 A 
ENDBRANCH   1  23
BRANCH  15  26
ATOM     26  C23 UNL     1      17.163  36.799  32.073  0.00  0.00    +0.000 A 
ATOM     27  C24 UNL     1      15.972  36.253  32.581  0.00  0.00    +0.000 A 
ATOM     28  C25 UNL     1      15.355  35.175  31.940  0.00  0.00    +0.000 A 
ATOM     29  C26 UNL     1      15.927  34.616  30.789  0.00  0.00    +0.000 A 
ATOM     30  C27 UNL     1      15.251  33.482  30.078  0.00  0.00    +0.000 C 
ATOM     31  C28 UNL     1      17.108  35.168  30.270  0.00  0.00    +0.000 A 
ATOM     32  C29 UNL     1      17.724  36.246  30.909  0.00  0.00    +0.000 A 
ENDBRANCH  15  26
BRANCH   7  33
ATOM     33  C11 UNL     1      19.900  40.130  37.359  0.00  0.00    +0.000 C 
ATOM     34  O2  UNL     1      20.520  40.934  38.110  0.00  0.00    +0.000 OA
BRANCH  33  35
ATOM     35  O3  UNL     1      19.407  38.916  37.857  0.00  0.00    +0.000 OA
BRANCH  35  36
ATOM     36  C12 UNL     1      20.179  37.796  38.199  0.00  0.00    +0.000 A 
ATOM     37  C13 UNL     1      19.709  36.947  39.209  0.00  0.00    +0.000 A 
ATOM     38  C14 UNL     1      20.448  35.824  39.595  0.00  0.00    +0.000 A 
ATOM     39  C15 UNL     1      21.656  35.531  38.960  0.00  0.00    +0.000 A 
ATOM     40  C16 UNL     1      22.123  36.355  37.933  0.00  0.00    +0.000 A 
ATOM     41  C17 UNL     1      21.385  37.479  37.544  0.00  0.00    +0.000 A 
ENDBRANCH  35  36
ENDBRANCH  33  35
ENDBRANCH   7  33
TORSDOF 5
ENDMDL
MODEL 10
REMARK VINA RESULT:    -6.014      7.234     11.527
REMARK INTER + INTRA:         -10.623
REMARK INTER:                  -8.208
REMARK INTRA:                  -2.415
REMARK UNBOUND:                -2.851
REMARK  Name = CNP0040680_2.pdb
REMARK  7 active torsions:
REMARK  status: ('A' for Active; 'I' for Inactive)
REMARK    1  A    between atoms: C1_1  and  C2_2
REMARK    2  A    between atoms: C5_5  and  N1_6
REMARK    3  A    between atoms: C10_12  and  C11_13
REMARK    4  A    between atoms: C11_13  and  O3_15
REMARK    5  A    between atoms: O3_15  and  C12_16
REMARK    6  A    between atoms: N2_29  and  C23_30
REMARK    7  A    between atoms: C26_33  and  C27_34
REMARK                            x       y       z     vdW  Elec       q    Type
REMARK                         _______ _______ _______ _____ _____    ______ ____
ROOT
ATOM      1  N1  UNL     1      22.347  36.636  36.727  0.00  0.00    +0.000 N 
ATOM      2  C6  UNL     1      23.488  36.066  36.048  0.00  0.00    +0.000 C 
ATOM      3  O1  UNL     1      23.671  36.093  34.803  0.00  0.00    +0.000 OA
ATOM      4  C7  UNL     1      24.506  35.720  37.065  0.00  0.00    +0.000 C 
ATOM      5  C8  UNL     1      25.794  34.826  37.068  0.00  0.00    +0.000 C 
ATOM      6  C9  UNL     1      25.420  33.428  37.602  0.00  0.00    +0.000 C 
ATOM      7  C10 UNL     1      24.917  33.407  38.882  0.00  0.00    +0.000 C 
ATOM      8  C18 UNL     1      24.497  34.792  39.435  0.00  0.00    +0.000 C 
ATOM      9  C19 UNL     1      23.587  35.295  38.243  0.00  0.00    +0.000 C 
ATOM     10  C20 UNL     1      22.532  36.329  38.125  0.00  0.00    +0.000 C 
ATOM     11  O4  UNL     1      21.763  36.702  39.050  0.00  0.00    +0.000 OA
ATOM     12  C21 UNL     1      25.760  35.722  39.450  0.00  0.00    +0.000 C 
ATOM     13  C22 UNL     1      26.776  36.068  40.470  0.00  0.00    +0.000 C 
ATOM     14  O5  UNL     1      26.609  36.034  41.720  0.00  0.00    +0.000 OA
ATOM     15  N2  UNL     1      27.898  36.683  39.803  0.00  0.00    +0.000 N 
ATOM     16  C30 UNL     1      27.716  36.402  38.399  0.00  0.00    +0.000 C 
ATOM     17  O6  UNL     1      28.461  36.825  37.476  0.00  0.00    +0.000 OA
ATOM     18  C31 UNL     1      26.691  35.341  38.265  0.00  0.00    +0.000 C 
ENDROOT
BRANCH   1  23
ATOM     19  C1  UNL     1      18.189  39.860  34.396  0.00  0.00    +0.000 C 
ATOM     20  C2  UNL     1      19.267  39.007  34.995  0.00  0.00    +0.000 A 
ATOM     21  C3  UNL     1      19.022  37.669  35.337  0.00  0.00    +0.000 A 
ATOM     22  C4  UNL     1      20.034  36.889  35.902  0.00  0.00    +0.000 A 
ATOM     23  C5  UNL     1      21.307  37.435  36.138  0.00  0.00    +0.000 A 
ATOM     24  C32 UNL     1      21.548  38.775  35.796  0.00  0.00    +0.000 A 
ATOM     25  C33 UNL     1      20.536  39.556  35.229  0.00  0.00    +0.000 A 
ENDBRANCH   1  23
BRANCH  15  26
ATOM     26  C23 UNL     1      28.979  37.410  40.410  0.00  0.00    +0.000 A 
ATOM     27  C24 UNL     1      29.923  36.745  41.210  0.00  0.00    +0.000 A 
ATOM     28  C25 UNL     1      30.973  37.451  41.803  0.00  0.00    +0.000 A 
ATOM     29  C26 UNL     1      31.088  38.837  41.617  0.00  0.00    +0.000 A 
ATOM     30  C27 UNL     1      32.232  39.593  42.223  0.00  0.00    +0.000 C 
ATOM     31  C28 UNL     1      30.156  39.501  40.806  0.00  0.00    +0.000 A 
ATOM     32  C29 UNL     1      29.106  38.795  40.212  0.00  0.00    +0.000 A 
ENDBRANCH  15  26
BRANCH   7  33
ATOM     33  C11 UNL     1      24.692  32.161  39.633  0.00  0.00    +0.000 C 
ATOM     34  O2  UNL     1      25.593  31.715  40.397  0.00  0.00    +0.000 OA
BRANCH  33  35
ATOM     35  O3  UNL     1      23.445  31.527  39.546  0.00  0.00    +0.000 OA
BRANCH  35  36
ATOM     36  C12 UNL     1      22.242  32.136  39.156  0.00  0.00    +0.000 A 
ATOM     37  C13 UNL     1      21.842  32.021  37.819  0.00  0.00    +0.000 A 
ATOM     38  C14 UNL     1      20.657  32.619  37.377  0.00  0.00    +0.000 A 
ATOM     39  C15 UNL     1      19.853  33.322  38.276  0.00  0.00    +0.000 A 
ATOM     40  C16 UNL     1      20.228  33.422  39.619  0.00  0.00    +0.000 A 
ATOM     41  C17 UNL     1      21.413  32.823  40.063  0.00  0.00    +0.000 A 
ENDBRANCH  35  36
ENDBRANCH  33  35
ENDBRANCH   7  33
TORSDOF 5
ENDMDL
