MODEL 1
REMARK VINA RESULT:    -8.543      0.000      0.000
REMARK INTER + INTRA:         -12.954
REMARK INTER:                 -10.790
REMARK INTRA:                  -2.164
REMARK UNBOUND:                -2.164
REMARK  Name = CNP0192238_3.pdb
REMARK  6 active torsions:
REMARK  status: ('A' for Active; 'I' for Inactive)
REMARK    1  A    between atoms: C1_1  and  C2_2
REMARK    2  A    between atoms: C8_11  and  C9_12
REMARK    3  A    between atoms: C9_12  and  C10_13
REMARK    4  A    between atoms: C13_16  and  O2_17
REMARK    5  A    between atoms: N3_23  and  C18_24
REMARK    6  A    between atoms: C18_24  and  C19_25
REMARK                            x       y       z     vdW  Elec       q    Type
REMARK                         _______ _______ _______ _____ _____    ______ ____
ROOT
ATOM      1  C1  UNL     1      58.312  57.643  70.649  0.00  0.00    +0.000 C 
ATOM      2  C2  UNL     1      59.749  57.741  71.060  0.00  0.00    +0.000 A 
ATOM      3  C3  UNL     1      60.467  58.947  70.890  0.00  0.00    +0.000 A 
ATOM      4  C4  UNL     1      61.807  59.040  71.296  0.00  0.00    +0.000 A 
ATOM      5  C5  UNL     1      62.417  57.911  71.836  0.00  0.00    +0.000 A 
ATOM      6  N1  UNL     1      63.715  57.858  72.396  0.00  0.00    +0.000 N 
ATOM      7  C6  UNL     1      63.831  56.545  72.929  0.00  0.00    +0.000 C 
ATOM      8  O1  UNL     1      64.852  56.155  73.555  0.00  0.00    +0.000 OA
ATOM      9  C7  UNL     1      62.609  55.688  72.656  0.00  0.00    +0.000 C 
ATOM     10  N2  UNL     1      61.980  55.217  73.891  0.00  0.00    +0.000 NA
ATOM     11  C8  UNL     1      62.588  53.920  74.192  0.00  0.00    +0.000 C 
ATOM     12  C16 UNL     1      63.039  53.293  72.847  0.00  0.00    +0.000 C 
ATOM     13  C17 UNL     1      62.104  52.269  72.267  0.00  0.00    +0.000 C 
ATOM     14  O3  UNL     1      61.948  51.112  72.743  0.00  0.00    +0.000 OA
ATOM     15  N3  UNL     1      61.460  52.703  71.085  0.00  0.00    +0.000 N 
ATOM     16  C26 UNL     1      61.975  53.994  70.816  0.00  0.00    +0.000 C 
ATOM     17  O6  UNL     1      61.674  54.645  69.780  0.00  0.00    +0.000 OA
ATOM     18  C27 UNL     1      62.997  54.446  71.823  0.00  0.00    +0.000 C 
ATOM     19  C28 UNL     1      61.740  56.716  71.972  0.00  0.00    +0.000 A 
ATOM     20  C29 UNL     1      60.389  56.621  71.627  0.00  0.00    +0.000 A 
ATOM     21  H6  UNL     1      64.406  58.637  72.473  0.00  0.00    +0.000 HD
ATOM     22  H7  UNL     1      62.156  55.884  74.680  0.00  0.00    +0.000 HD
ENDROOT
BRANCH  11  23
ATOM     23  C9  UNL     1      61.622  53.055  75.028  0.00  0.00    +0.000 C 
BRANCH  23  24
ATOM     24  C10 UNL     1      61.895  53.185  76.504  0.00  0.00    +0.000 A 
ATOM     25  C11 UNL     1      60.851  53.483  77.394  0.00  0.00    +0.000 A 
ATOM     26  C12 UNL     1      61.100  53.580  78.766  0.00  0.00    +0.000 A 
ATOM     27  C13 UNL     1      62.394  53.370  79.263  0.00  0.00    +0.000 A 
ATOM     28  C14 UNL     1      63.435  53.062  78.380  0.00  0.00    +0.000 A 
ATOM     29  C15 UNL     1      63.189  52.968  77.009  0.00  0.00    +0.000 A 
BRANCH  27  30
ATOM     30  O2  UNL     1      62.654  53.464  80.627  0.00  0.00    +0.000 OA
ATOM     31  H13 UNL     1      62.668  52.644  81.222  0.00  0.00    +0.000 HD
ENDBRANCH  27  30
ENDBRANCH  23  24
ENDBRANCH  11  23
BRANCH  15  32
ATOM     32  C18 UNL     1      60.248  52.125  70.507  0.00  0.00    +0.000 C 
BRANCH  32  33
ATOM     33  C19 UNL     1      59.034  52.838  71.033  0.00  0.00    +0.000 A 
ATOM     34  C20 UNL     1      58.160  53.522  70.149  0.00  0.00    +0.000 A 
ATOM     35  C21 UNL     1      57.060  54.243  70.648  0.00  0.00    +0.000 A 
ATOM     36  C22 UNL     1      56.878  54.278  72.027  0.00  0.00    +0.000 A 
ATOM     37  O4  UNL     1      55.903  54.937  72.750  0.00  0.00    +0.000 OA
ATOM     38  C23 UNL     1      56.141  54.689  74.143  0.00  0.00    +0.000 C 
ATOM     39  O5  UNL     1      57.298  53.842  74.179  0.00  0.00    +0.000 OA
ATOM     40  C24 UNL     1      57.709  53.626  72.878  0.00  0.00    +0.000 A 
ATOM     41  C25 UNL     1      58.794  52.883  72.424  0.00  0.00    +0.000 A 
ENDBRANCH  32  33
ENDBRANCH  15  32
TORSDOF 5
ENDMDL
MODEL 2
REMARK VINA RESULT:    -7.795      3.235      7.785
REMARK INTER + INTRA:         -12.010
REMARK INTER:                  -9.866
REMARK INTRA:                  -2.144
REMARK UNBOUND:                -2.164
REMARK  Name = CNP0192238_3.pdb
REMARK  6 active torsions:
REMARK  status: ('A' for Active; 'I' for Inactive)
REMARK    1  A    between atoms: C1_1  and  C2_2
REMARK    2  A    between atoms: C8_11  and  C9_12
REMARK    3  A    between atoms: C9_12  and  C10_13
REMARK    4  A    between atoms: C13_16  and  O2_17
REMARK    5  A    between atoms: N3_23  and  C18_24
REMARK    6  A    between atoms: C18_24  and  C19_25
REMARK                            x       y       z     vdW  Elec       q    Type
REMARK                         _______ _______ _______ _____ _____    ______ ____
ROOT
ATOM      1  C1  UNL     1      63.694  55.368  72.774  0.00  0.00    +0.000 C 
ATOM      2  C2  UNL     1      62.899  56.492  72.184  0.00  0.00    +0.000 A 
ATOM      3  C3  UNL     1      63.363  57.825  72.267  0.00  0.00    +0.000 A 
ATOM      4  C4  UNL     1      62.626  58.872  71.696  0.00  0.00    +0.000 A 
ATOM      5  C5  UNL     1      61.416  58.571  71.075  0.00  0.00    +0.000 A 
ATOM      6  N1  UNL     1      60.605  59.478  70.355  0.00  0.00    +0.000 N 
ATOM      7  C6  UNL     1      59.564  58.682  69.804  0.00  0.00    +0.000 C 
ATOM      8  O1  UNL     1      58.673  59.157  69.051  0.00  0.00    +0.000 OA
ATOM      9  C7  UNL     1      59.648  57.227  70.226  0.00  0.00    +0.000 C 
ATOM     10  N2  UNL     1      59.787  56.328  69.078  0.00  0.00    +0.000 NA
ATOM     11  C8  UNL     1      58.427  55.941  68.694  0.00  0.00    +0.000 C 
ATOM     12  C16 UNL     1      57.546  56.016  69.968  0.00  0.00    +0.000 C 
ATOM     13  C17 UNL     1      57.295  54.704  70.656  0.00  0.00    +0.000 C 
ATOM     14  O3  UNL     1      56.540  53.803  70.197  0.00  0.00    +0.000 OA
ATOM     15  N3  UNL     1      57.935  54.598  71.913  0.00  0.00    +0.000 N 
ATOM     16  C26 UNL     1      58.583  55.839  72.121  0.00  0.00    +0.000 C 
ATOM     17  O6  UNL     1      59.188  56.120  73.191  0.00  0.00    +0.000 OA
ATOM     18  C27 UNL     1      58.375  56.814  70.995  0.00  0.00    +0.000 C 
ATOM     19  C28 UNL     1      60.931  57.279  71.020  0.00  0.00    +0.000 A 
ATOM     20  C29 UNL     1      61.680  56.216  71.533  0.00  0.00    +0.000 A 
ATOM     21  H6  UNL     1      60.778  60.496  70.194  0.00  0.00    +0.000 HD
ATOM     22  H7  UNL     1      60.258  56.813  68.276  0.00  0.00    +0.000 HD
ENDROOT
BRANCH  11  23
ATOM     23  C9  UNL     1      58.440  54.572  67.984  0.00  0.00    +0.000 C 
BRANCH  23  24
ATOM     24  C10 UNL     1      58.273  54.719  66.494  0.00  0.00    +0.000 A 
ATOM     25  C11 UNL     1      58.224  55.994  65.908  0.00  0.00    +0.000 A 
ATOM     26  C12 UNL     1      58.093  56.129  64.523  0.00  0.00    +0.000 A 
ATOM     27  C13 UNL     1      58.020  54.991  63.708  0.00  0.00    +0.000 A 
ATOM     28  C14 UNL     1      58.080  53.719  64.287  0.00  0.00    +0.000 A 
ATOM     29  C15 UNL     1      58.207  53.581  65.670  0.00  0.00    +0.000 A 
BRANCH  27  30
ATOM     30  O2  UNL     1      57.890  55.114  62.327  0.00  0.00    +0.000 OA
ATOM     31  H13 UNL     1      58.698  55.209  61.725  0.00  0.00    +0.000 HD
ENDBRANCH  27  30
ENDBRANCH  23  24
ENDBRANCH  11  23
BRANCH  15  32
ATOM     32  C18 UNL     1      58.202  53.357  72.637  0.00  0.00    +0.000 C 
BRANCH  32  33
ATOM     33  C19 UNL     1      59.649  52.974  72.489  0.00  0.00    +0.000 A 
ATOM     34  C20 UNL     1      60.200  52.723  71.206  0.00  0.00    +0.000 A 
ATOM     35  C21 UNL     1      61.535  52.302  71.072  0.00  0.00    +0.000 A 
ATOM     36  C22 UNL     1      62.278  52.122  72.234  0.00  0.00    +0.000 A 
ATOM     37  O4  UNL     1      63.584  51.688  72.362  0.00  0.00    +0.000 OA
ATOM     38  C23 UNL     1      63.901  51.646  73.761  0.00  0.00    +0.000 C 
ATOM     39  O5  UNL     1      62.711  52.090  74.427  0.00  0.00    +0.000 OA
ATOM     40  C24 UNL     1      61.759  52.360  73.463  0.00  0.00    +0.000 A 
ATOM     41  C25 UNL     1      60.451  52.799  73.638  0.00  0.00    +0.000 A 
ENDBRANCH  32  33
ENDBRANCH  15  32
TORSDOF 5
ENDMDL
MODEL 3
REMARK VINA RESULT:    -7.641      1.532      2.127
REMARK INTER + INTRA:         -11.816
REMARK INTER:                  -9.601
REMARK INTRA:                  -2.214
REMARK UNBOUND:                -2.164
REMARK  Name = CNP0192238_3.pdb
REMARK  6 active torsions:
REMARK  status: ('A' for Active; 'I' for Inactive)
REMARK    1  A    between atoms: C1_1  and  C2_2
REMARK    2  A    between atoms: C8_11  and  C9_12
REMARK    3  A    between atoms: C9_12  and  C10_13
REMARK    4  A    between atoms: C13_16  and  O2_17
REMARK    5  A    between atoms: N3_23  and  C18_24
REMARK    6  A    between atoms: C18_24  and  C19_25
REMARK                            x       y       z     vdW  Elec       q    Type
REMARK                         _______ _______ _______ _____ _____    ______ ____
ROOT
ATOM      1  C1  UNL     1      57.486  55.735  69.332  0.00  0.00    +0.000 C 
ATOM      2  C2  UNL     1      58.658  56.438  69.946  0.00  0.00    +0.000 A 
ATOM      3  C3  UNL     1      58.907  57.802  69.669  0.00  0.00    +0.000 A 
ATOM      4  C4  UNL     1      59.993  58.461  70.262  0.00  0.00    +0.000 A 
ATOM      5  C5  UNL     1      60.834  57.733  71.100  0.00  0.00    +0.000 A 
ATOM      6  N1  UNL     1      61.902  58.260  71.864  0.00  0.00    +0.000 N 
ATOM      7  C6  UNL     1      62.365  57.169  72.649  0.00  0.00    +0.000 C 
ATOM      8  O1  UNL     1      63.290  57.286  73.495  0.00  0.00    +0.000 OA
ATOM      9  C7  UNL     1      61.634  55.874  72.348  0.00  0.00    +0.000 C 
ATOM     10  N2  UNL     1      60.959  55.336  73.531  0.00  0.00    +0.000 NA
ATOM     11  C8  UNL     1      61.914  54.427  74.169  0.00  0.00    +0.000 C 
ATOM     12  C16 UNL     1      62.850  53.881  73.060  0.00  0.00    +0.000 C 
ATOM     13  C17 UNL     1      62.507  52.513  72.541  0.00  0.00    +0.000 C 
ATOM     14  O3  UNL     1      62.680  51.450  73.197  0.00  0.00    +0.000 OA
ATOM     15  N3  UNL     1      62.031  52.522  71.209  0.00  0.00    +0.000 N 
ATOM     16  C26 UNL     1      62.088  53.872  70.787  0.00  0.00    +0.000 C 
ATOM     17  O6  UNL     1      61.811  54.229  69.610  0.00  0.00    +0.000 OA
ATOM     18  C27 UNL     1      62.622  54.801  71.842  0.00  0.00    +0.000 C 
ATOM     19  C28 UNL     1      60.627  56.391  71.349  0.00  0.00    +0.000 A 
ATOM     20  C29 UNL     1      59.517  55.732  70.813  0.00  0.00    +0.000 A 
ATOM     21  H6  UNL     1      62.227  59.252  71.903  0.00  0.00    +0.000 HD
ATOM     22  H7  UNL     1      60.699  56.102  74.197  0.00  0.00    +0.000 HD
ENDROOT
BRANCH  11  23
ATOM     23  C9  UNL     1      61.167  53.351  74.985  0.00  0.00    +0.000 C 
BRANCH  23  24
ATOM     24  C10 UNL     1      61.581  53.367  76.433  0.00  0.00    +0.000 A 
ATOM     25  C11 UNL     1      60.629  53.598  77.439  0.00  0.00    +0.000 A 
ATOM     26  C12 UNL     1      61.009  53.588  78.785  0.00  0.00    +0.000 A 
ATOM     27  C13 UNL     1      62.342  53.337  79.138  0.00  0.00    +0.000 A 
ATOM     28  C14 UNL     1      63.291  53.094  78.138  0.00  0.00    +0.000 A 
ATOM     29  C15 UNL     1      62.915  53.107  76.794  0.00  0.00    +0.000 A 
BRANCH  27  30
ATOM     30  O2  UNL     1      62.732  53.324  80.475  0.00  0.00    +0.000 OA
ATOM     31  H13 UNL     1      62.237  53.861  81.176  0.00  0.00    +0.000 HD
ENDBRANCH  27  30
ENDBRANCH  23  24
ENDBRANCH  11  23
BRANCH  15  32
ATOM     32  C18 UNL     1      61.275  51.451  70.561  0.00  0.00    +0.000 C 
BRANCH  32  33
ATOM     33  C19 UNL     1      59.806  51.771  70.581  0.00  0.00    +0.000 A 
ATOM     34  C20 UNL     1      59.122  51.940  71.813  0.00  0.00    +0.000 A 
ATOM     35  C21 UNL     1      57.736  52.176  71.832  0.00  0.00    +0.000 A 
ATOM     36  C22 UNL     1      57.066  52.212  70.614  0.00  0.00    +0.000 A 
ATOM     37  O4  UNL     1      55.717  52.393  70.379  0.00  0.00    +0.000 OA
ATOM     38  C23 UNL     1      55.503  52.335  68.961  0.00  0.00    +0.000 C 
ATOM     39  O5  UNL     1      56.804  52.124  68.396  0.00  0.00    +0.000 OA
ATOM     40  C24 UNL     1      57.713  52.052  69.434  0.00  0.00    +0.000 A 
ATOM     41  C25 UNL     1      59.086  51.840  69.369  0.00  0.00    +0.000 A 
ENDBRANCH  32  33
ENDBRANCH  15  32
TORSDOF 5
ENDMDL
MODEL 4
REMARK VINA RESULT:    -7.466      2.923      5.286
REMARK INTER + INTRA:         -11.595
REMARK INTER:                  -9.077
REMARK INTRA:                  -2.518
REMARK UNBOUND:                -2.164
REMARK  Name = CNP0192238_3.pdb
REMARK  6 active torsions:
REMARK  status: ('A' for Active; 'I' for Inactive)
REMARK    1  A    between atoms: C1_1  and  C2_2
REMARK    2  A    between atoms: C8_11  and  C9_12
REMARK    3  A    between atoms: C9_12  and  C10_13
REMARK    4  A    between atoms: C13_16  and  O2_17
REMARK    5  A    between atoms: N3_23  and  C18_24
REMARK    6  A    between atoms: C18_24  and  C19_25
REMARK                            x       y       z     vdW  Elec       q    Type
REMARK                         _______ _______ _______ _____ _____    ______ ____
ROOT
ATOM      1  C1  UNL     1      63.068  57.622  71.318  0.00  0.00    +0.000 C 
ATOM      2  C2  UNL     1      63.118  56.333  72.081  0.00  0.00    +0.000 A 
ATOM      3  C3  UNL     1      64.047  56.153  73.131  0.00  0.00    +0.000 A 
ATOM      4  C4  UNL     1      64.076  54.953  73.856  0.00  0.00    +0.000 A 
ATOM      5  C5  UNL     1      63.194  53.937  73.495  0.00  0.00    +0.000 A 
ATOM      6  N1  UNL     1      63.011  52.715  74.182  0.00  0.00    +0.000 N 
ATOM      7  C6  UNL     1      61.925  52.080  73.521  0.00  0.00    +0.000 C 
ATOM      8  O1  UNL     1      61.449  50.979  73.901  0.00  0.00    +0.000 OA
ATOM      9  C7  UNL     1      61.421  52.869  72.325  0.00  0.00    +0.000 C 
ATOM     10  N2  UNL     1      60.012  53.241  72.465  0.00  0.00    +0.000 NA
ATOM     11  C8  UNL     1      59.241  52.164  71.840  0.00  0.00    +0.000 C 
ATOM     12  C16 UNL     1      60.135  51.525  70.746  0.00  0.00    +0.000 C 
ATOM     13  C17 UNL     1      59.867  51.989  69.342  0.00  0.00    +0.000 C 
ATOM     14  O3  UNL     1      58.843  51.667  68.680  0.00  0.00    +0.000 OA
ATOM     15  N3  UNL     1      60.913  52.772  68.801  0.00  0.00    +0.000 N 
ATOM     16  C26 UNL     1      61.919  52.813  69.795  0.00  0.00    +0.000 C 
ATOM     17  O6  UNL     1      63.038  53.364  69.610  0.00  0.00    +0.000 OA
ATOM     18  C27 UNL     1      61.562  52.036  71.033  0.00  0.00    +0.000 C 
ATOM     19  C28 UNL     1      62.308  54.084  72.446  0.00  0.00    +0.000 A 
ATOM     20  C29 UNL     1      62.225  55.294  71.751  0.00  0.00    +0.000 A 
ATOM     21  H6  UNL     1      63.511  52.386  75.039  0.00  0.00    +0.000 HD
ATOM     22  H7  UNL     1      59.745  53.329  73.475  0.00  0.00    +0.000 HD
ENDROOT
BRANCH  11  23
ATOM     23  C9  UNL     1      57.880  52.696  71.347  0.00  0.00    +0.000 C 
BRANCH  23  24
ATOM     24  C10 UNL     1      57.503  53.981  72.039  0.00  0.00    +0.000 A 
ATOM     25  C11 UNL     1      56.772  53.952  73.237  0.00  0.00    +0.000 A 
ATOM     26  C12 UNL     1      56.444  55.143  73.891  0.00  0.00    +0.000 A 
ATOM     27  C13 UNL     1      56.851  56.374  73.359  0.00  0.00    +0.000 A 
ATOM     28  C14 UNL     1      57.590  56.406  72.171  0.00  0.00    +0.000 A 
ATOM     29  C15 UNL     1      57.915  55.218  71.514  0.00  0.00    +0.000 A 
BRANCH  27  30
ATOM     30  O2  UNL     1      56.529  57.566  74.002  0.00  0.00    +0.000 OA
ATOM     31  H13 UNL     1      55.687  58.081  73.775  0.00  0.00    +0.000 HD
ENDBRANCH  27  30
ENDBRANCH  23  24
ENDBRANCH  11  23
BRANCH  15  32
ATOM     32  C18 UNL     1      60.807  53.666  67.648  0.00  0.00    +0.000 C 
BRANCH  32  33
ATOM     33  C19 UNL     1      59.992  54.877  68.009  0.00  0.00    +0.000 A 
ATOM     34  C20 UNL     1      58.621  54.955  67.654  0.00  0.00    +0.000 A 
ATOM     35  C21 UNL     1      57.876  56.114  67.934  0.00  0.00    +0.000 A 
ATOM     36  C22 UNL     1      58.533  57.178  68.543  0.00  0.00    +0.000 A 
ATOM     37  O4  UNL     1      58.031  58.419  68.884  0.00  0.00    +0.000 OA
ATOM     38  C23 UNL     1      59.096  59.180  69.472  0.00  0.00    +0.000 C 
ATOM     39  O5  UNL     1      60.232  58.305  69.460  0.00  0.00    +0.000 OA
ATOM     40  C24 UNL     1      59.843  57.111  68.885  0.00  0.00    +0.000 A 
ATOM     41  C25 UNL     1      60.610  55.975  68.648  0.00  0.00    +0.000 A 
ENDBRANCH  32  33
ENDBRANCH  15  32
TORSDOF 5
ENDMDL
MODEL 5
REMARK VINA RESULT:    -7.448      3.454      6.778
REMARK INTER + INTRA:         -11.571
REMARK INTER:                  -9.536
REMARK INTRA:                  -2.035
REMARK UNBOUND:                -2.164
REMARK  Name = CNP0192238_3.pdb
REMARK  6 active torsions:
REMARK  status: ('A' for Active; 'I' for Inactive)
REMARK    1  A    between atoms: C1_1  and  C2_2
REMARK    2  A    between atoms: C8_11  and  C9_12
REMARK    3  A    between atoms: C9_12  and  C10_13
REMARK    4  A    between atoms: C13_16  and  O2_17
REMARK    5  A    between atoms: N3_23  and  C18_24
REMARK    6  A    between atoms: C18_24  and  C19_25
REMARK                            x       y       z     vdW  Elec       q    Type
REMARK                         _______ _______ _______ _____ _____    ______ ____
ROOT
ATOM      1  C1  UNL     1      58.717  50.567  69.529  0.00  0.00    +0.000 C 
ATOM      2  C2  UNL     1      58.017  51.679  70.250  0.00  0.00    +0.000 A 
ATOM      3  C3  UNL     1      57.038  51.399  71.231  0.00  0.00    +0.000 A 
ATOM      4  C4  UNL     1      56.400  52.442  71.918  0.00  0.00    +0.000 A 
ATOM      5  C5  UNL     1      56.731  53.754  71.588  0.00  0.00    +0.000 A 
ATOM      6  N1  UNL     1      56.273  54.916  72.251  0.00  0.00    +0.000 N 
ATOM      7  C6  UNL     1      56.984  55.988  71.646  0.00  0.00    +0.000 C 
ATOM      8  O1  UNL     1      56.863  57.183  72.026  0.00  0.00    +0.000 OA
ATOM      9  C7  UNL     1      57.881  55.533  70.510  0.00  0.00    +0.000 C 
ATOM     10  N2  UNL     1      59.287  55.861  70.754  0.00  0.00    +0.000 NA
ATOM     11  C8  UNL     1      59.511  57.178  70.152  0.00  0.00    +0.000 C 
ATOM     12  C16 UNL     1      58.505  57.332  68.982  0.00  0.00    +0.000 C 
ATOM     13  C17 UNL     1      59.059  57.056  67.613  0.00  0.00    +0.000 C 
ATOM     14  O3  UNL     1      59.860  57.822  67.012  0.00  0.00    +0.000 OA
ATOM     15  N3  UNL     1      58.540  55.878  67.025  0.00  0.00    +0.000 N 
ATOM     16  C26 UNL     1      57.599  55.366  67.951  0.00  0.00    +0.000 C 
ATOM     17  O6  UNL     1      56.883  54.358  67.707  0.00  0.00    +0.000 OA
ATOM     18  C27 UNL     1      57.463  56.212  69.188  0.00  0.00    +0.000 C 
ATOM     19  C28 UNL     1      57.657  54.044  70.606  0.00  0.00    +0.000 A 
ATOM     20  C29 UNL     1      58.344  53.017  69.951  0.00  0.00    +0.000 A 
ATOM     21  H6  UNL     1      55.618  54.968  73.063  0.00  0.00    +0.000 HD
ATOM     22  H7  UNL     1      59.491  55.902  71.781  0.00  0.00    +0.000 HD
ENDROOT
BRANCH  11  23
ATOM     23  C9  UNL     1      60.995  57.345  69.766  0.00  0.00    +0.000 C 
BRANCH  23  24
ATOM     24  C10 UNL     1      61.907  57.069  70.933  0.00  0.00    +0.000 A 
ATOM     25  C11 UNL     1      62.448  58.131  71.676  0.00  0.00    +0.000 A 
ATOM     26  C12 UNL     1      63.273  57.874  72.774  0.00  0.00    +0.000 A 
ATOM     27  C13 UNL     1      63.559  56.553  73.147  0.00  0.00    +0.000 A 
ATOM     28  C14 UNL     1      63.012  55.493  72.416  0.00  0.00    +0.000 A 
ATOM     29  C15 UNL     1      62.190  55.747  71.317  0.00  0.00    +0.000 A 
BRANCH  27  30
ATOM     30  O2  UNL     1      64.380  56.286  74.239  0.00  0.00    +0.000 OA
ATOM     31  H13 UNL     1      65.249  56.785  74.384  0.00  0.00    +0.000 HD
ENDBRANCH  27  30
ENDBRANCH  23  24
ENDBRANCH  11  23
BRANCH  15  32
ATOM     32  C18 UNL     1      59.133  55.144  65.909  0.00  0.00    +0.000 C 
BRANCH  32  33
ATOM     33  C19 UNL     1      59.986  54.019  66.426  0.00  0.00    +0.000 A 
ATOM     34  C20 UNL     1      59.806  52.697  65.944  0.00  0.00    +0.000 A 
ATOM     35  C21 UNL     1      60.560  51.635  66.474  0.00  0.00    +0.000 A 
ATOM     36  C22 UNL     1      61.461  51.924  67.494  0.00  0.00    +0.000 A 
ATOM     37  O4  UNL     1      62.282  51.057  68.189  0.00  0.00    +0.000 OA
ATOM     38  C23 UNL     1      63.016  51.821  69.156  0.00  0.00    +0.000 C 
ATOM     39  O5  UNL     1      62.581  53.175  68.970  0.00  0.00    +0.000 OA
ATOM     40  C24 UNL     1      61.639  53.185  67.959  0.00  0.00    +0.000 A 
ATOM     41  C25 UNL     1      60.931  54.267  67.446  0.00  0.00    +0.000 A 
ENDBRANCH  32  33
ENDBRANCH  15  32
TORSDOF 5
ENDMDL
MODEL 6
REMARK VINA RESULT:    -7.362      2.017      3.364
REMARK INTER + INTRA:         -11.463
REMARK INTER:                 -10.784
REMARK INTRA:                  -0.679
REMARK UNBOUND:                -2.164
REMARK  Name = CNP0192238_3.pdb
REMARK  6 active torsions:
REMARK  status: ('A' for Active; 'I' for Inactive)
REMARK    1  A    between atoms: C1_1  and  C2_2
REMARK    2  A    between atoms: C8_11  and  C9_12
REMARK    3  A    between atoms: C9_12  and  C10_13
REMARK    4  A    between atoms: C13_16  and  O2_17
REMARK    5  A    between atoms: N3_23  and  C18_24
REMARK    6  A    between atoms: C18_24  and  C19_25
REMARK                            x       y       z     vdW  Elec       q    Type
REMARK                         _______ _______ _______ _____ _____    ______ ____
ROOT
ATOM      1  C1  UNL     1      58.267  57.637  70.628  0.00  0.00    +0.000 C 
ATOM      2  C2  UNL     1      59.703  57.741  71.044  0.00  0.00    +0.000 A 
ATOM      3  C3  UNL     1      60.416  58.951  70.876  0.00  0.00    +0.000 A 
ATOM      4  C4  UNL     1      61.754  59.050  71.286  0.00  0.00    +0.000 A 
ATOM      5  C5  UNL     1      62.367  57.923  71.829  0.00  0.00    +0.000 A 
ATOM      6  N1  UNL     1      63.663  57.876  72.393  0.00  0.00    +0.000 N 
ATOM      7  C6  UNL     1      63.784  56.564  72.926  0.00  0.00    +0.000 C 
ATOM      8  O1  UNL     1      64.804  56.178  73.556  0.00  0.00    +0.000 OA
ATOM      9  C7  UNL     1      62.567  55.701  72.649  0.00  0.00    +0.000 C 
ATOM     10  N2  UNL     1      61.935  55.227  73.882  0.00  0.00    +0.000 NA
ATOM     11  C8  UNL     1      62.549  53.932  74.186  0.00  0.00    +0.000 C 
ATOM     12  C16 UNL     1      63.007  53.308  72.842  0.00  0.00    +0.000 C 
ATOM     13  C17 UNL     1      62.079  52.280  72.259  0.00  0.00    +0.000 C 
ATOM     14  O3  UNL     1      61.926  51.122  72.734  0.00  0.00    +0.000 OA
ATOM     15  N3  UNL     1      61.437  52.711  71.075  0.00  0.00    +0.000 N 
ATOM     16  C26 UNL     1      61.947  54.004  70.807  0.00  0.00    +0.000 C 
ATOM     17  O6  UNL     1      61.646  54.654  69.770  0.00  0.00    +0.000 OA
ATOM     18  C27 UNL     1      62.963  54.461  71.818  0.00  0.00    +0.000 C 
ATOM     19  C28 UNL     1      61.696  56.725  71.963  0.00  0.00    +0.000 A 
ATOM     20  C29 UNL     1      60.346  56.624  71.613  0.00  0.00    +0.000 A 
ATOM     21  H6  UNL     1      64.351  58.659  72.473  0.00  0.00    +0.000 HD
ATOM     22  H7  UNL     1      62.106  55.895  74.672  0.00  0.00    +0.000 HD
ENDROOT
BRANCH  11  23
ATOM     23  C9  UNL     1      61.583  53.063  75.017  0.00  0.00    +0.000 C 
BRANCH  23  24
ATOM     24  C10 UNL     1      61.854  53.192  76.494  0.00  0.00    +0.000 A 
ATOM     25  C11 UNL     1      60.809  53.499  77.381  0.00  0.00    +0.000 A 
ATOM     26  C12 UNL     1      61.056  53.593  78.754  0.00  0.00    +0.000 A 
ATOM     27  C13 UNL     1      62.346  53.373  79.255  0.00  0.00    +0.000 A 
ATOM     28  C14 UNL     1      63.387  53.055  78.374  0.00  0.00    +0.000 A 
ATOM     29  C15 UNL     1      63.144  52.964  77.003  0.00  0.00    +0.000 A 
BRANCH  27  30
ATOM     30  O2  UNL     1      62.603  53.465  80.620  0.00  0.00    +0.000 OA
ATOM     31  H13 UNL     1      62.948  52.673  81.149  0.00  0.00    +0.000 HD
ENDBRANCH  27  30
ENDBRANCH  23  24
ENDBRANCH  11  23
BRANCH  15  32
ATOM     32  C18 UNL     1      60.230  52.127  70.492  0.00  0.00    +0.000 C 
BRANCH  32  33
ATOM     33  C19 UNL     1      60.303  52.182  68.991  0.00  0.00    +0.000 A 
ATOM     34  C20 UNL     1      61.286  51.436  68.290  0.00  0.00    +0.000 A 
ATOM     35  C21 UNL     1      61.396  51.537  66.892  0.00  0.00    +0.000 A 
ATOM     36  C22 UNL     1      60.530  52.404  66.233  0.00  0.00    +0.000 A 
ATOM     37  O4  UNL     1      60.465  52.697  64.885  0.00  0.00    +0.000 OA
ATOM     38  C23 UNL     1      59.422  53.662  64.690  0.00  0.00    +0.000 C 
ATOM     39  O5  UNL     1      58.883  53.898  65.999  0.00  0.00    +0.000 OA
ATOM     40  C24 UNL     1      59.588  53.119  66.896  0.00  0.00    +0.000 A 
ATOM     41  C25 UNL     1      59.431  53.031  68.275  0.00  0.00    +0.000 A 
ENDBRANCH  32  33
ENDBRANCH  15  32
TORSDOF 5
ENDMDL
MODEL 7
REMARK VINA RESULT:    -7.353      3.579      7.721
REMARK INTER + INTRA:         -11.452
REMARK INTER:                 -10.345
REMARK INTRA:                  -1.106
REMARK UNBOUND:                -2.164
REMARK  Name = CNP0192238_3.pdb
REMARK  6 active torsions:
REMARK  status: ('A' for Active; 'I' for Inactive)
REMARK    1  A    between atoms: C1_1  and  C2_2
REMARK    2  A    between atoms: C8_11  and  C9_12
REMARK    3  A    between atoms: C9_12  and  C10_13
REMARK    4  A    between atoms: C13_16  and  O2_17
REMARK    5  A    between atoms: N3_23  and  C18_24
REMARK    6  A    between atoms: C18_24  and  C19_25
REMARK                            x       y       z     vdW  Elec       q    Type
REMARK                         _______ _______ _______ _____ _____    ______ ____
ROOT
ATOM      1  C1  UNL     1      63.299  55.535  73.104  0.00  0.00    +0.000 C 
ATOM      2  C2  UNL     1      62.638  56.665  72.376  0.00  0.00    +0.000 A 
ATOM      3  C3  UNL     1      63.205  57.961  72.389  0.00  0.00    +0.000 A 
ATOM      4  C4  UNL     1      62.595  59.011  71.688  0.00  0.00    +0.000 A 
ATOM      5  C5  UNL     1      61.405  58.754  71.011  0.00  0.00    +0.000 A 
ATOM      6  N1  UNL     1      60.719  59.660  70.169  0.00  0.00    +0.000 N 
ATOM      7  C6  UNL     1      59.651  58.905  69.610  0.00  0.00    +0.000 C 
ATOM      8  O1  UNL     1      58.852  59.384  68.764  0.00  0.00    +0.000 OA
ATOM      9  C7  UNL     1      59.588  57.487  70.148  0.00  0.00    +0.000 C 
ATOM     10  N2  UNL     1      59.723  56.489  69.085  0.00  0.00    +0.000 NA
ATOM     11  C8  UNL     1      58.363  56.179  68.639  0.00  0.00    +0.000 C 
ATOM     12  C16 UNL     1      57.413  56.426  69.839  0.00  0.00    +0.000 C 
ATOM     13  C17 UNL     1      57.011  55.198  70.607  0.00  0.00    +0.000 C 
ATOM     14  O3  UNL     1      56.215  54.324  70.168  0.00  0.00    +0.000 OA
ATOM     15  N3  UNL     1      57.561  55.147  71.910  0.00  0.00    +0.000 N 
ATOM     16  C26 UNL     1      58.296  56.347  72.067  0.00  0.00    +0.000 C 
ATOM     17  O6  UNL     1      58.853  56.667  73.151  0.00  0.00    +0.000 OA
ATOM     18  C27 UNL     1      58.239  57.239  70.857  0.00  0.00    +0.000 C 
ATOM     19  C28 UNL     1      60.819  57.505  71.022  0.00  0.00    +0.000 A 
ATOM     20  C29 UNL     1      61.443  56.432  71.666  0.00  0.00    +0.000 A 
ATOM     21  H6  UNL     1      60.985  60.645  69.943  0.00  0.00    +0.000 HD
ATOM     22  H7  UNL     1      60.282  56.868  68.283  0.00  0.00    +0.000 HD
ENDROOT
BRANCH  11  23
ATOM     23  C9  UNL     1      58.306  54.759  68.039  0.00  0.00    +0.000 C 
BRANCH  23  24
ATOM     24  C10 UNL     1      58.232  54.795  66.534  0.00  0.00    +0.000 A 
ATOM     25  C11 UNL     1      58.063  53.608  65.805  0.00  0.00    +0.000 A 
ATOM     26  C12 UNL     1      57.969  53.645  64.410  0.00  0.00    +0.000 A 
ATOM     27  C13 UNL     1      58.035  54.870  63.732  0.00  0.00    +0.000 A 
ATOM     28  C14 UNL     1      58.192  56.056  64.457  0.00  0.00    +0.000 A 
ATOM     29  C15 UNL     1      58.289  56.022  65.849  0.00  0.00    +0.000 A 
BRANCH  27  30
ATOM     30  O2  UNL     1      57.943  54.918  62.344  0.00  0.00    +0.000 OA
ATOM     31  H13 UNL     1      58.284  55.713  61.817  0.00  0.00    +0.000 HD
ENDBRANCH  27  30
ENDBRANCH  23  24
ENDBRANCH  11  23
BRANCH  15  32
ATOM     32  C18 UNL     1      57.678  53.952  72.744  0.00  0.00    +0.000 C 
BRANCH  32  33
ATOM     33  C19 UNL     1      56.968  54.166  74.053  0.00  0.00    +0.000 A 
ATOM     34  C20 UNL     1      57.638  53.935  75.282  0.00  0.00    +0.000 A 
ATOM     35  C21 UNL     1      56.954  54.072  76.504  0.00  0.00    +0.000 A 
ATOM     36  C22 UNL     1      55.607  54.416  76.459  0.00  0.00    +0.000 A 
ATOM     37  O4  UNL     1      54.724  54.576  77.510  0.00  0.00    +0.000 OA
ATOM     38  C23 UNL     1      53.442  54.913  76.963  0.00  0.00    +0.000 C 
ATOM     39  O5  UNL     1      53.639  54.950  75.543  0.00  0.00    +0.000 OA
ATOM     40  C24 UNL     1      54.961  54.638  75.289  0.00  0.00    +0.000 A 
ATOM     41  C25 UNL     1      55.605  54.536  74.060  0.00  0.00    +0.000 A 
ENDBRANCH  32  33
ENDBRANCH  15  32
TORSDOF 5
ENDMDL
MODEL 8
REMARK VINA RESULT:    -7.287      2.303      7.744
REMARK INTER + INTRA:         -11.369
REMARK INTER:                  -9.597
REMARK INTRA:                  -1.772
REMARK UNBOUND:                -2.164
REMARK  Name = CNP0192238_3.pdb
REMARK  6 active torsions:
REMARK  status: ('A' for Active; 'I' for Inactive)
REMARK    1  A    between atoms: C1_1  and  C2_2
REMARK    2  A    between atoms: C8_11  and  C9_12
REMARK    3  A    between atoms: C9_12  and  C10_13
REMARK    4  A    between atoms: C13_16  and  O2_17
REMARK    5  A    between atoms: N3_23  and  C18_24
REMARK    6  A    between atoms: C18_24  and  C19_25
REMARK                            x       y       z     vdW  Elec       q    Type
REMARK                         _______ _______ _______ _____ _____    ______ ____
ROOT
ATOM      1  C1  UNL     1      61.266  53.521  77.590  0.00  0.00    +0.000 C 
ATOM      2  C2  UNL     1      59.875  53.571  77.035  0.00  0.00    +0.000 A 
ATOM      3  C3  UNL     1      58.754  53.435  77.886  0.00  0.00    +0.000 A 
ATOM      4  C4  UNL     1      57.453  53.504  77.365  0.00  0.00    +0.000 A 
ATOM      5  C5  UNL     1      57.297  53.675  75.992  0.00  0.00    +0.000 A 
ATOM      6  N1  UNL     1      56.070  53.876  75.316  0.00  0.00    +0.000 N 
ATOM      7  C6  UNL     1      56.433  54.132  73.966  0.00  0.00    +0.000 C 
ATOM      8  O1  UNL     1      55.586  54.408  73.076  0.00  0.00    +0.000 OA
ATOM      9  C7  UNL     1      57.928  54.030  73.727  0.00  0.00    +0.000 C 
ATOM     10  N2  UNL     1      58.492  55.285  73.226  0.00  0.00    +0.000 NA
ATOM     11  C8  UNL     1      58.445  55.200  71.765  0.00  0.00    +0.000 C 
ATOM     12  C16 UNL     1      58.520  53.699  71.383  0.00  0.00    +0.000 C 
ATOM     13  C17 UNL     1      59.877  53.205  70.968  0.00  0.00    +0.000 C 
ATOM     14  O3  UNL     1      60.427  53.501  69.872  0.00  0.00    +0.000 OA
ATOM     15  N3  UNL     1      60.458  52.313  71.899  0.00  0.00    +0.000 N 
ATOM     16  C26 UNL     1      59.498  52.147  72.926  0.00  0.00    +0.000 C 
ATOM     17  O6  UNL     1      59.659  51.345  73.885  0.00  0.00    +0.000 OA
ATOM     18  C27 UNL     1      58.235  52.929  72.690  0.00  0.00    +0.000 C 
ATOM     19  C28 UNL     1      58.382  53.770  75.144  0.00  0.00    +0.000 A 
ATOM     20  C29 UNL     1      59.684  53.762  75.652  0.00  0.00    +0.000 A 
ATOM     21  H6  UNL     1      55.113  53.910  75.733  0.00  0.00    +0.000 HD
ATOM     22  H7  UNL     1      57.929  56.107  73.552  0.00  0.00    +0.000 HD
ENDROOT
BRANCH  11  23
ATOM     23  C9  UNL     1      59.539  56.090  71.140  0.00  0.00    +0.000 C 
BRANCH  23  24
ATOM     24  C10 UNL     1      59.216  56.449  69.713  0.00  0.00    +0.000 A 
ATOM     25  C11 UNL     1      60.131  57.183  68.942  0.00  0.00    +0.000 A 
ATOM     26  C12 UNL     1      59.841  57.493  67.610  0.00  0.00    +0.000 A 
ATOM     27  C13 UNL     1      58.638  57.065  67.033  0.00  0.00    +0.000 A 
ATOM     28  C14 UNL     1      57.728  56.323  67.795  0.00  0.00    +0.000 A 
ATOM     29  C15 UNL     1      58.014  56.015  69.126  0.00  0.00    +0.000 A 
BRANCH  27  30
ATOM     30  O2  UNL     1      58.338  57.369  65.708  0.00  0.00    +0.000 OA
ATOM     31  H13 UNL     1      58.814  58.115  65.215  0.00  0.00    +0.000 HD
ENDBRANCH  27  30
ENDBRANCH  23  24
ENDBRANCH  11  23
BRANCH  15  32
ATOM     32  C18 UNL     1      61.875  51.965  71.984  0.00  0.00    +0.000 C 
BRANCH  32  33
ATOM     33  C19 UNL     1      62.635  53.061  72.678  0.00  0.00    +0.000 A 
ATOM     34  C20 UNL     1      62.939  52.964  74.061  0.00  0.00    +0.000 A 
ATOM     35  C21 UNL     1      63.592  54.018  74.724  0.00  0.00    +0.000 A 
ATOM     36  C22 UNL     1      63.904  55.155  73.986  0.00  0.00    +0.000 A 
ATOM     37  O4  UNL     1      64.509  56.321  74.416  0.00  0.00    +0.000 OA
ATOM     38  C23 UNL     1      64.601  57.211  73.294  0.00  0.00    +0.000 C 
ATOM     39  O5  UNL     1      64.028  56.488  72.196  0.00  0.00    +0.000 OA
ATOM     40  C24 UNL     1      63.618  55.255  72.665  0.00  0.00    +0.000 A 
ATOM     41  C25 UNL     1      62.994  54.227  71.966  0.00  0.00    +0.000 A 
ENDBRANCH  32  33
ENDBRANCH  15  32
TORSDOF 5
ENDMDL
MODEL 9
REMARK VINA RESULT:    -7.222      3.589      7.895
REMARK INTER + INTRA:         -11.286
REMARK INTER:                  -9.095
REMARK INTRA:                  -2.191
REMARK UNBOUND:                -2.164
REMARK  Name = CNP0192238_3.pdb
REMARK  6 active torsions:
REMARK  status: ('A' for Active; 'I' for Inactive)
REMARK    1  A    between atoms: C1_1  and  C2_2
REMARK    2  A    between atoms: C8_11  and  C9_12
REMARK    3  A    between atoms: C9_12  and  C10_13
REMARK    4  A    between atoms: C13_16  and  O2_17
REMARK    5  A    between atoms: N3_23  and  C18_24
REMARK    6  A    between atoms: C18_24  and  C19_25
REMARK                            x       y       z     vdW  Elec       q    Type
REMARK                         _______ _______ _______ _____ _____    ______ ____
ROOT
ATOM      1  C1  UNL     1      61.320  54.633  73.256  0.00  0.00    +0.000 C 
ATOM      2  C2  UNL     1      61.677  53.937  71.978  0.00  0.00    +0.000 A 
ATOM      3  C3  UNL     1      62.771  53.042  71.925  0.00  0.00    +0.000 A 
ATOM      4  C4  UNL     1      63.089  52.376  70.732  0.00  0.00    +0.000 A 
ATOM      5  C5  UNL     1      62.324  52.644  69.599  0.00  0.00    +0.000 A 
ATOM      6  N1  UNL     1      62.433  51.986  68.352  0.00  0.00    +0.000 N 
ATOM      7  C6  UNL     1      61.366  52.505  67.569  0.00  0.00    +0.000 C 
ATOM      8  O1  UNL     1      61.124  52.103  66.400  0.00  0.00    +0.000 OA
ATOM      9  C7  UNL     1      60.576  53.582  68.289  0.00  0.00    +0.000 C 
ATOM     10  N2  UNL     1      59.164  53.223  68.437  0.00  0.00    +0.000 NA
ATOM     11  C8  UNL     1      58.477  53.769  67.265  0.00  0.00    +0.000 C 
ATOM     12  C16 UNL     1      59.281  55.007  66.790  0.00  0.00    +0.000 C 
ATOM     13  C17 UNL     1      58.738  56.337  67.230  0.00  0.00    +0.000 C 
ATOM     14  O3  UNL     1      57.686  56.855  66.765  0.00  0.00    +0.000 OA
ATOM     15  N3  UNL     1      59.561  56.995  68.173  0.00  0.00    +0.000 N 
ATOM     16  C26 UNL     1      60.689  56.158  68.352  0.00  0.00    +0.000 C 
ATOM     17  O6  UNL     1      61.671  56.484  69.072  0.00  0.00    +0.000 OA
ATOM     18  C27 UNL     1      60.643  54.913  67.510  0.00  0.00    +0.000 C 
ATOM     19  C28 UNL     1      61.278  53.545  69.625  0.00  0.00    +0.000 A 
ATOM     20  C29 UNL     1      60.911  54.173  70.819  0.00  0.00    +0.000 A 
ATOM     21  H6  UNL     1      63.099  51.225  68.090  0.00  0.00    +0.000 HD
ATOM     22  H7  UNL     1      59.042  52.182  68.467  0.00  0.00    +0.000 HD
ENDROOT
BRANCH  11  23
ATOM     23  C9  UNL     1      56.993  54.037  67.589  0.00  0.00    +0.000 C 
BRANCH  23  24
ATOM     24  C10 UNL     1      56.118  52.881  67.178  0.00  0.00    +0.000 A 
ATOM     25  C11 UNL     1      56.460  52.096  66.064  0.00  0.00    +0.000 A 
ATOM     26  C12 UNL     1      55.661  51.008  65.698  0.00  0.00    +0.000 A 
ATOM     27  C13 UNL     1      54.519  50.689  66.445  0.00  0.00    +0.000 A 
ATOM     28  C14 UNL     1      54.183  51.463  67.562  0.00  0.00    +0.000 A 
ATOM     29  C15 UNL     1      54.976  52.551  67.928  0.00  0.00    +0.000 A 
BRANCH  27  30
ATOM     30  O2  UNL     1      53.717  49.609  66.088  0.00  0.00    +0.000 OA
ATOM     31  H13 UNL     1      52.711  49.633  66.208  0.00  0.00    +0.000 HD
ENDBRANCH  27  30
ENDBRANCH  23  24
ENDBRANCH  11  23
BRANCH  15  32
ATOM     32  C18 UNL     1      59.150  58.083  69.059  0.00  0.00    +0.000 C 
BRANCH  32  33
ATOM     33  C19 UNL     1      58.738  57.532  70.396  0.00  0.00    +0.000 A 
ATOM     34  C20 UNL     1      59.468  57.863  71.568  0.00  0.00    +0.000 A 
ATOM     35  C21 UNL     1      59.122  57.297  72.807  0.00  0.00    +0.000 A 
ATOM     36  C22 UNL     1      58.065  56.393  72.836  0.00  0.00    +0.000 A 
ATOM     37  O4  UNL     1      57.564  55.688  73.914  0.00  0.00    +0.000 OA
ATOM     38  C23 UNL     1      56.484  54.869  73.444  0.00  0.00    +0.000 C 
ATOM     39  O5  UNL     1      56.385  55.151  72.041  0.00  0.00    +0.000 OA
ATOM     40  C24 UNL     1      57.363  56.073  71.722  0.00  0.00    +0.000 A 
ATOM     41  C25 UNL     1      57.657  56.628  70.481  0.00  0.00    +0.000 A 
ENDBRANCH  32  33
ENDBRANCH  15  32
TORSDOF 5
ENDMDL
MODEL 10
REMARK VINA RESULT:    -7.222      3.384      6.092
REMARK INTER + INTRA:         -11.286
REMARK INTER:                  -9.104
REMARK INTRA:                  -2.181
REMARK UNBOUND:                -2.164
REMARK  Name = CNP0192238_3.pdb
REMARK  6 active torsions:
REMARK  status: ('A' for Active; 'I' for Inactive)
REMARK    1  A    between atoms: C1_1  and  C2_2
REMARK    2  A    between atoms: C8_11  and  C9_12
REMARK    3  A    between atoms: C9_12  and  C10_13
REMARK    4  A    between atoms: C13_16  and  O2_17
REMARK    5  A    between atoms: N3_23  and  C18_24
REMARK    6  A    between atoms: C18_24  and  C19_25
REMARK                            x       y       z     vdW  Elec       q    Type
REMARK                         _______ _______ _______ _____ _____    ______ ____
ROOT
ATOM      1  C1  UNL     1      55.753  50.885  71.499  0.00  0.00    +0.000 C 
ATOM      2  C2  UNL     1      55.776  52.241  72.138  0.00  0.00    +0.000 A 
ATOM      3  C3  UNL     1      54.837  52.582  73.139  0.00  0.00    +0.000 A 
ATOM      4  C4  UNL     1      54.876  53.845  73.749  0.00  0.00    +0.000 A 
ATOM      5  C5  UNL     1      55.837  54.759  73.323  0.00  0.00    +0.000 A 
ATOM      6  N1  UNL     1      56.089  56.025  73.900  0.00  0.00    +0.000 N 
ATOM      7  C6  UNL     1      57.234  56.518  73.215  0.00  0.00    +0.000 C 
ATOM      8  O1  UNL     1      57.777  57.616  73.506  0.00  0.00    +0.000 OA
ATOM      9  C7  UNL     1      57.708  55.589  72.114  0.00  0.00    +0.000 C 
ATOM     10  N2  UNL     1      59.084  55.136  72.330  0.00  0.00    +0.000 NA
ATOM     11  C8  UNL     1      59.945  56.094  71.632  0.00  0.00    +0.000 C 
ATOM     12  C16 UNL     1      59.124  56.686  70.457  0.00  0.00    +0.000 C 
ATOM     13  C17 UNL     1      59.392  56.075  69.111  0.00  0.00    +0.000 C 
ATOM     14  O3  UNL     1      60.452  56.262  68.453  0.00  0.00    +0.000 OA
ATOM     15  N3  UNL     1      58.306  55.318  68.612  0.00  0.00    +0.000 N 
ATOM     16  C26 UNL     1      57.276  55.440  69.575  0.00  0.00    +0.000 C 
ATOM     17  O6  UNL     1      56.126  54.952  69.408  0.00  0.00    +0.000 OA
ATOM     18  C27 UNL     1      57.658  56.303  70.746  0.00  0.00    +0.000 C 
ATOM     19  C28 UNL     1      56.735  54.453  72.319  0.00  0.00    +0.000 A 
ATOM     20  C29 UNL     1      56.748  53.181  71.741  0.00  0.00    +0.000 A 
ATOM     21  H6  UNL     1      55.594  56.466  74.707  0.00  0.00    +0.000 HD
ATOM     22  H7  UNL     1      59.320  55.125  73.351  0.00  0.00    +0.000 HD
ENDROOT
BRANCH  11  23
ATOM     23  C9  UNL     1      61.276  55.425  71.232  0.00  0.00    +0.000 C 
BRANCH  23  24
ATOM     24  C10 UNL     1      62.446  56.045  71.951  0.00  0.00    +0.000 A 
ATOM     25  C11 UNL     1      63.263  55.261  72.781  0.00  0.00    +0.000 A 
ATOM     26  C12 UNL     1      64.363  55.830  73.428  0.00  0.00    +0.000 A 
ATOM     27  C13 UNL     1      64.663  57.187  73.245  0.00  0.00    +0.000 A 
ATOM     28  C14 UNL     1      63.858  57.969  72.408  0.00  0.00    +0.000 A 
ATOM     29  C15 UNL     1      62.757  57.403  71.764  0.00  0.00    +0.000 A 
BRANCH  27  30
ATOM     30  O2  UNL     1      65.756  57.765  73.885  0.00  0.00    +0.000 OA
ATOM     31  H13 UNL     1      65.746  58.734  74.180  0.00  0.00    +0.000 HD
ENDBRANCH  27  30
ENDBRANCH  23  24
ENDBRANCH  11  23
BRANCH  15  32
ATOM     32  C18 UNL     1      58.376  54.315  67.551  0.00  0.00    +0.000 C 
BRANCH  32  33
ATOM     33  C19 UNL     1      58.546  52.944  68.147  0.00  0.00    +0.000 A 
ATOM     34  C20 UNL     1      57.597  51.922  67.886  0.00  0.00    +0.000 A 
ATOM     35  C21 UNL     1      57.721  50.661  68.495  0.00  0.00    +0.000 A 
ATOM     36  C22 UNL     1      58.784  50.464  69.371  0.00  0.00    +0.000 A 
ATOM     37  O4  UNL     1      59.096  49.338  70.107  0.00  0.00    +0.000 OA
ATOM     38  C23 UNL     1      60.273  49.623  70.876  0.00  0.00    +0.000 C 
ATOM     39  O5  UNL     1      60.626  50.970  70.533  0.00  0.00    +0.000 OA
ATOM     40  C24 UNL     1      59.695  51.436  69.625  0.00  0.00    +0.000 A 
ATOM     41  C25 UNL     1      59.622  52.689  69.026  0.00  0.00    +0.000 A 
ENDBRANCH  32  33
ENDBRANCH  15  32
TORSDOF 5
ENDMDL
