MODEL 1
REMARK VINA RESULT:    -6.189      0.000      0.000
REMARK INTER + INTRA:         -11.329
REMARK INTER:                  -9.264
REMARK INTRA:                  -2.064
REMARK UNBOUND:                -2.064
REMARK  Name = CNP0131556_1.pdb
REMARK  13 active torsions:
REMARK  status: ('A' for Active; 'I' for Inactive)
REMARK    1  A    between atoms: C1_1  and  C2_2
REMARK    2  A    between atoms: C3_3  and  C4_4
REMARK    3  A    between atoms: C3_3  and  C5_5
REMARK    4  A    between atoms: C5_5  and  O2_7
REMARK    5  A    between atoms: O2_7  and  C6_8
REMARK    6  A    between atoms: C6_8  and  C7_9
REMARK    7  A    between atoms: C6_8  and  C8_10
REMARK    8  A    between atoms: C6_8  and  C9_11
REMARK    9  A    between atoms: C19_24  and  O6_25
REMARK   10  A    between atoms: O6_25  and  C20_26
REMARK   11  A    between atoms: C20_26  and  C21_28
REMARK   12  A    between atoms: C22_29  and  C23_30
REMARK   13  A    between atoms: C26_33  and  O8_34
REMARK                            x       y       z     vdW  Elec       q    Type
REMARK                         _______ _______ _______ _____ _____    ______ ____
ROOT
ATOM      1  C9  UNL     1      16.280  39.758  33.002  0.00  0.00    +0.000 C 
ATOM      2  O3  UNL     1      15.634  39.592  31.740  0.00  0.00    +0.000 OA
ATOM      3  C10 UNL     1      15.577  38.261  31.399  0.00  0.00    +0.000 A 
ATOM      4  C11 UNL     1      14.941  37.723  30.282  0.00  0.00    +0.000 A 
ATOM      5  C12 UNL     1      14.982  36.332  30.092  0.00  0.00    +0.000 A 
ATOM      6  C13 UNL     1      15.656  35.512  31.023  0.00  0.00    +0.000 A 
ATOM      7  C14 UNL     1      15.722  34.125  30.865  0.00  0.00    +0.000 A 
ATOM      8  C15 UNL     1      16.410  33.361  31.807  0.00  0.00    +0.000 A 
ATOM      9  C16 UNL     1      17.019  34.004  32.891  0.00  0.00    +0.000 A 
ATOM     10  O4  UNL     1      17.648  33.329  33.748  0.00  0.00    +0.000 OA
ATOM     11  O5  UNL     1      16.939  35.325  33.022  0.00  0.00    +0.000 OA
ATOM     12  C17 UNL     1      16.296  36.091  32.147  0.00  0.00    +0.000 A 
ATOM     13  C18 UNL     1      16.237  37.480  32.306  0.00  0.00    +0.000 A 
ATOM     14  C19 UNL     1      16.870  38.345  33.349  0.00  0.00    +0.000 C 
ENDROOT
BRANCH   1  15
ATOM     15  C6  UNL     1      17.237  40.997  33.001  0.00  0.00    +0.000 C 
ATOM     16  C7  UNL     1      17.820  41.322  34.400  0.00  0.00    +0.000 C 
ATOM     17  C8  UNL     1      16.491  42.234  32.467  0.00  0.00    +0.000 C 
BRANCH  15  18
ATOM     18  O2  UNL     1      18.305  40.759  32.069  0.00  0.00    +0.000 OA
BRANCH  18  19
ATOM     19  C5  UNL     1      19.561  41.391  32.038  0.00  0.00    +0.000 C 
ATOM     20  O1  UNL     1      19.687  42.543  31.545  0.00  0.00    +0.000 OA
BRANCH  19  23
ATOM     21  C1  UNL     1      20.919  39.129  30.553  0.00  0.00    +0.000 C 
ATOM     22  C2  UNL     1      21.348  39.650  31.891  0.00  0.00    +0.000 C 
ATOM     23  C3  UNL     1      20.742  40.655  32.557  0.00  0.00    +0.000 C 
ATOM     24  C4  UNL     1      21.358  41.136  33.845  0.00  0.00    +0.000 C 
ENDBRANCH  19  23
ENDBRANCH  18  19
ENDBRANCH  15  18
ENDBRANCH   1  15
BRANCH  14  25
ATOM     25  O6  UNL     1      18.287  38.298  33.200  0.00  0.00    +0.000 OA
BRANCH  25  26
ATOM     26  C20 UNL     1      19.152  37.697  34.121  0.00  0.00    +0.000 C 
ATOM     27  O7  UNL     1      20.059  36.909  33.734  0.00  0.00    +0.000 OA
BRANCH  26  28
ATOM     28  C21 UNL     1      18.969  37.988  35.552  0.00  0.00    +0.000 C 
ATOM     29  C22 UNL     1      19.810  38.775  36.237  0.00  0.00    +0.000 C 
BRANCH  29  30
ATOM     30  C23 UNL     1      19.668  39.080  37.684  0.00  0.00    +0.000 A 
ATOM     31  C24 UNL     1      19.436  38.016  38.572  0.00  0.00    +0.000 A 
ATOM     32  C25 UNL     1      19.299  38.251  39.944  0.00  0.00    +0.000 A 
ATOM     33  C26 UNL     1      19.402  39.550  40.450  0.00  0.00    +0.000 A 
ATOM     34  C27 UNL     1      19.648  40.616  39.576  0.00  0.00    +0.000 A 
ATOM     35  C28 UNL     1      19.786  40.386  38.204  0.00  0.00    +0.000 A 
BRANCH  33  36
ATOM     36  O8  UNL     1      19.262  39.770  41.818  0.00  0.00    +0.000 OA
ATOM     37  H24 UNL     1      19.679  39.148  42.500  0.00  0.00    +0.000 HD
ENDBRANCH  33  36
ENDBRANCH  29  30
ENDBRANCH  26  28
ENDBRANCH  25  26
ENDBRANCH  14  25
TORSDOF 9
ENDMDL
MODEL 2
REMARK VINA RESULT:    -6.101      3.639      8.816
REMARK INTER + INTRA:         -11.196
REMARK INTER:                  -9.573
REMARK INTRA:                  -1.623
REMARK UNBOUND:                -2.064
REMARK  Name = CNP0131556_1.pdb
REMARK  13 active torsions:
REMARK  status: ('A' for Active; 'I' for Inactive)
REMARK    1  A    between atoms: C1_1  and  C2_2
REMARK    2  A    between atoms: C3_3  and  C4_4
REMARK    3  A    between atoms: C3_3  and  C5_5
REMARK    4  A    between atoms: C5_5  and  O2_7
REMARK    5  A    between atoms: O2_7  and  C6_8
REMARK    6  A    between atoms: C6_8  and  C7_9
REMARK    7  A    between atoms: C6_8  and  C8_10
REMARK    8  A    between atoms: C6_8  and  C9_11
REMARK    9  A    between atoms: C19_24  and  O6_25
REMARK   10  A    between atoms: O6_25  and  C20_26
REMARK   11  A    between atoms: C20_26  and  C21_28
REMARK   12  A    between atoms: C22_29  and  C23_30
REMARK   13  A    between atoms: C26_33  and  O8_34
REMARK                            x       y       z     vdW  Elec       q    Type
REMARK                         _______ _______ _______ _____ _____    ______ ____
ROOT
ATOM      1  C9  UNL     1      19.994  35.869  39.280  0.00  0.00    +0.000 C 
ATOM      2  O3  UNL     1      20.276  37.066  40.003  0.00  0.00    +0.000 OA
ATOM      3  C10 UNL     1      20.113  38.167  39.195  0.00  0.00    +0.000 A 
ATOM      4  C11 UNL     1      20.219  39.501  39.588  0.00  0.00    +0.000 A 
ATOM      5  C12 UNL     1      20.017  40.501  38.623  0.00  0.00    +0.000 A 
ATOM      6  C13 UNL     1      19.714  40.147  37.291  0.00  0.00    +0.000 A 
ATOM      7  C14 UNL     1      19.512  41.115  36.302  0.00  0.00    +0.000 A 
ATOM      8  C15 UNL     1      19.227  40.712  34.999  0.00  0.00    +0.000 A 
ATOM      9  C16 UNL     1      19.150  39.344  34.710  0.00  0.00    +0.000 A 
ATOM     10  O4  UNL     1      18.898  38.964  33.536  0.00  0.00    +0.000 OA
ATOM     11  O5  UNL     1      19.342  38.442  35.668  0.00  0.00    +0.000 OA
ATOM     12  C17 UNL     1      19.619  38.781  36.923  0.00  0.00    +0.000 A 
ATOM     13  C18 UNL     1      19.826  37.809  37.908  0.00  0.00    +0.000 A 
ATOM     14  C19 UNL     1      19.848  36.319  37.782  0.00  0.00    +0.000 C 
ENDROOT
BRANCH   1  15
ATOM     15  C6  UNL     1      21.008  34.729  39.631  0.00  0.00    +0.000 C 
ATOM     16  C7  UNL     1      20.622  33.356  39.025  0.00  0.00    +0.000 C 
ATOM     17  C8  UNL     1      21.128  34.589  41.160  0.00  0.00    +0.000 C 
BRANCH  15  18
ATOM     18  O2  UNL     1      22.316  35.115  39.176  0.00  0.00    +0.000 OA
BRANCH  18  19
ATOM     19  C5  UNL     1      23.430  34.278  38.988  0.00  0.00    +0.000 C 
ATOM     20  O1  UNL     1      23.582  33.645  37.910  0.00  0.00    +0.000 OA
BRANCH  19  23
ATOM     21  C1  UNL     1      23.576  31.822  40.753  0.00  0.00    +0.000 C 
ATOM     22  C2  UNL     1      24.465  33.022  40.885  0.00  0.00    +0.000 C 
ATOM     23  C3  UNL     1      24.399  34.119  40.103  0.00  0.00    +0.000 C 
ATOM     24  C4  UNL     1      25.433  35.197  40.293  0.00  0.00    +0.000 C 
ENDBRANCH  19  23
ENDBRANCH  18  19
ENDBRANCH  15  18
ENDBRANCH   1  15
BRANCH  14  25
ATOM     25  O6  UNL     1      20.969  35.933  36.989  0.00  0.00    +0.000 OA
BRANCH  25  26
ATOM     26  C20 UNL     1      20.873  35.195  35.805  0.00  0.00    +0.000 C 
ATOM     27  O7  UNL     1      21.900  34.682  35.281  0.00  0.00    +0.000 OA
BRANCH  26  28
ATOM     28  C21 UNL     1      19.553  35.048  35.172  0.00  0.00    +0.000 C 
ATOM     29  C22 UNL     1      19.324  35.407  33.901  0.00  0.00    +0.000 C 
BRANCH  29  30
ATOM     30  C23 UNL     1      18.003  35.289  33.231  0.00  0.00    +0.000 A 
ATOM     31  C24 UNL     1      17.119  36.379  33.297  0.00  0.00    +0.000 A 
ATOM     32  C25 UNL     1      15.866  36.319  32.679  0.00  0.00    +0.000 A 
ATOM     33  C26 UNL     1      15.482  35.172  31.978  0.00  0.00    +0.000 A 
ATOM     34  C27 UNL     1      16.360  34.085  31.893  0.00  0.00    +0.000 A 
ATOM     35  C28 UNL     1      17.614  34.142  32.508  0.00  0.00    +0.000 A 
BRANCH  33  36
ATOM     36  O8  UNL     1      14.230  35.124  31.368  0.00  0.00    +0.000 OA
ATOM     37  H24 UNL     1      13.376  35.224  31.904  0.00  0.00    +0.000 HD
ENDBRANCH  33  36
ENDBRANCH  29  30
ENDBRANCH  26  28
ENDBRANCH  25  26
ENDBRANCH  14  25
TORSDOF 9
ENDMDL
MODEL 3
REMARK VINA RESULT:    -6.095      5.757      9.024
REMARK INTER + INTRA:         -11.187
REMARK INTER:                  -9.770
REMARK INTRA:                  -1.418
REMARK UNBOUND:                -2.064
REMARK  Name = CNP0131556_1.pdb
REMARK  13 active torsions:
REMARK  status: ('A' for Active; 'I' for Inactive)
REMARK    1  A    between atoms: C1_1  and  C2_2
REMARK    2  A    between atoms: C3_3  and  C4_4
REMARK    3  A    between atoms: C3_3  and  C5_5
REMARK    4  A    between atoms: C5_5  and  O2_7
REMARK    5  A    between atoms: O2_7  and  C6_8
REMARK    6  A    between atoms: C6_8  and  C7_9
REMARK    7  A    between atoms: C6_8  and  C8_10
REMARK    8  A    between atoms: C6_8  and  C9_11
REMARK    9  A    between atoms: C19_24  and  O6_25
REMARK   10  A    between atoms: O6_25  and  C20_26
REMARK   11  A    between atoms: C20_26  and  C21_28
REMARK   12  A    between atoms: C22_29  and  C23_30
REMARK   13  A    between atoms: C26_33  and  O8_34
REMARK                            x       y       z     vdW  Elec       q    Type
REMARK                         _______ _______ _______ _____ _____    ______ ____
ROOT
ATOM      1  C9  UNL     1      22.065  30.745  38.918  0.00  0.00    +0.000 C 
ATOM      2  O3  UNL     1      21.285  30.092  39.920  0.00  0.00    +0.000 OA
ATOM      3  C10 UNL     1      19.974  29.986  39.517  0.00  0.00    +0.000 A 
ATOM      4  C11 UNL     1      18.953  29.330  40.202  0.00  0.00    +0.000 A 
ATOM      5  C12 UNL     1      17.667  29.319  39.637  0.00  0.00    +0.000 A 
ATOM      6  C13 UNL     1      17.432  29.963  38.403  0.00  0.00    +0.000 A 
ATOM      7  C14 UNL     1      16.165  29.978  37.813  0.00  0.00    +0.000 A 
ATOM      8  C15 UNL     1      15.984  30.637  36.598  0.00  0.00    +0.000 A 
ATOM      9  C16 UNL     1      17.078  31.270  35.997  0.00  0.00    +0.000 A 
ATOM     10  O4  UNL     1      16.931  31.875  34.902  0.00  0.00    +0.000 OA
ATOM     11  O5  UNL     1      18.275  31.239  36.576  0.00  0.00    +0.000 OA
ATOM     12  C17 UNL     1      18.492  30.625  37.734  0.00  0.00    +0.000 A 
ATOM     13  C18 UNL     1      19.761  30.617  38.324  0.00  0.00    +0.000 A 
ATOM     14  C19 UNL     1      21.022  31.282  37.873  0.00  0.00    +0.000 C 
ENDROOT
BRANCH   1  15
ATOM     15  C6  UNL     1      23.090  31.747  39.547  0.00  0.00    +0.000 C 
ATOM     16  C7  UNL     1      24.399  31.880  38.729  0.00  0.00    +0.000 C 
ATOM     17  C8  UNL     1      23.435  31.311  40.983  0.00  0.00    +0.000 C 
BRANCH  15  18
ATOM     18  O2  UNL     1      22.462  33.035  39.676  0.00  0.00    +0.000 OA
BRANCH  18  19
ATOM     19  C5  UNL     1      22.914  34.126  40.438  0.00  0.00    +0.000 C 
ATOM     20  O1  UNL     1      22.312  34.467  41.491  0.00  0.00    +0.000 OA
BRANCH  19  23
ATOM     21  C1  UNL     1      25.593  34.168  41.847  0.00  0.00    +0.000 C 
ATOM     22  C2  UNL     1      25.283  34.910  40.582  0.00  0.00    +0.000 C 
ATOM     23  C3  UNL     1      24.089  34.896  39.954  0.00  0.00    +0.000 C 
ATOM     24  C4  UNL     1      23.965  35.608  38.633  0.00  0.00    +0.000 C 
ENDBRANCH  19  23
ENDBRANCH  18  19
ENDBRANCH  15  18
ENDBRANCH   1  15
BRANCH  14  25
ATOM     25  O6  UNL     1      20.859  32.697  37.950  0.00  0.00    +0.000 OA
BRANCH  25  26
ATOM     26  C20 UNL     1      20.769  33.537  36.835  0.00  0.00    +0.000 C 
ATOM     27  O7  UNL     1      20.713  33.056  35.669  0.00  0.00    +0.000 OA
BRANCH  26  28
ATOM     28  C21 UNL     1      20.762  34.993  37.049  0.00  0.00    +0.000 C 
ATOM     29  C22 UNL     1      20.219  35.554  38.139  0.00  0.00    +0.000 C 
BRANCH  29  30
ATOM     30  C23 UNL     1      20.178  37.019  38.384  0.00  0.00    +0.000 A 
ATOM     31  C24 UNL     1      20.593  37.881  37.355  0.00  0.00    +0.000 A 
ATOM     32  C25 UNL     1      20.569  39.268  37.535  0.00  0.00    +0.000 A 
ATOM     33  C26 UNL     1      20.122  39.813  38.742  0.00  0.00    +0.000 A 
ATOM     34  C27 UNL     1      19.693  38.964  39.770  0.00  0.00    +0.000 A 
ATOM     35  C28 UNL     1      19.715  37.577  39.593  0.00  0.00    +0.000 A 
BRANCH  33  36
ATOM     36  O8  UNL     1      20.106  41.196  38.909  0.00  0.00    +0.000 OA
ATOM     37  H24 UNL     1      19.592  41.632  39.667  0.00  0.00    +0.000 HD
ENDBRANCH  33  36
ENDBRANCH  29  30
ENDBRANCH  26  28
ENDBRANCH  25  26
ENDBRANCH  14  25
TORSDOF 9
ENDMDL
MODEL 4
REMARK VINA RESULT:    -6.049      2.258      6.959
REMARK INTER + INTRA:         -11.119
REMARK INTER:                  -8.650
REMARK INTRA:                  -2.469
REMARK UNBOUND:                -2.064
REMARK  Name = CNP0131556_1.pdb
REMARK  13 active torsions:
REMARK  status: ('A' for Active; 'I' for Inactive)
REMARK    1  A    between atoms: C1_1  and  C2_2
REMARK    2  A    between atoms: C3_3  and  C4_4
REMARK    3  A    between atoms: C3_3  and  C5_5
REMARK    4  A    between atoms: C5_5  and  O2_7
REMARK    5  A    between atoms: O2_7  and  C6_8
REMARK    6  A    between atoms: C6_8  and  C7_9
REMARK    7  A    between atoms: C6_8  and  C8_10
REMARK    8  A    between atoms: C6_8  and  C9_11
REMARK    9  A    between atoms: C19_24  and  O6_25
REMARK   10  A    between atoms: O6_25  and  C20_26
REMARK   11  A    between atoms: C20_26  and  C21_28
REMARK   12  A    between atoms: C22_29  and  C23_30
REMARK   13  A    between atoms: C26_33  and  O8_34
REMARK                            x       y       z     vdW  Elec       q    Type
REMARK                         _______ _______ _______ _____ _____    ______ ____
ROOT
ATOM      1  C9  UNL     1      20.105  40.790  35.121  0.00  0.00    +0.000 C 
ATOM      2  O3  UNL     1      19.988  41.331  36.436  0.00  0.00    +0.000 OA
ATOM      3  C10 UNL     1      20.015  40.326  37.375  0.00  0.00    +0.000 A 
ATOM      4  C11 UNL     1      20.012  40.492  38.759  0.00  0.00    +0.000 A 
ATOM      5  C12 UNL     1      20.045  39.346  39.571  0.00  0.00    +0.000 A 
ATOM      6  C13 UNL     1      20.080  38.064  38.982  0.00  0.00    +0.000 A 
ATOM      7  C14 UNL     1      20.108  36.901  39.757  0.00  0.00    +0.000 A 
ATOM      8  C15 UNL     1      20.131  35.659  39.127  0.00  0.00    +0.000 A 
ATOM      9  C16 UNL     1      20.125  35.605  37.728  0.00  0.00    +0.000 A 
ATOM     10  O4  UNL     1      20.140  34.490  37.142  0.00  0.00    +0.000 OA
ATOM     11  O5  UNL     1      20.102  36.725  37.011  0.00  0.00    +0.000 OA
ATOM     12  C17 UNL     1      20.077  37.930  37.571  0.00  0.00    +0.000 A 
ATOM     13  C18 UNL     1      20.044  39.091  36.791  0.00  0.00    +0.000 A 
ATOM     14  C19 UNL     1      19.969  39.235  35.304  0.00  0.00    +0.000 C 
ENDROOT
BRANCH   1  15
ATOM     15  C6  UNL     1      19.154  41.517  34.111  0.00  0.00    +0.000 C 
ATOM     16  C7  UNL     1      19.483  43.021  33.934  0.00  0.00    +0.000 C 
ATOM     17  C8  UNL     1      17.692  41.372  34.572  0.00  0.00    +0.000 C 
BRANCH  15  18
ATOM     18  O2  UNL     1      19.225  40.847  32.841  0.00  0.00    +0.000 OA
BRANCH  18  19
ATOM     19  C5  UNL     1      19.273  41.444  31.569  0.00  0.00    +0.000 C 
ATOM     20  O1  UNL     1      20.353  41.910  31.120  0.00  0.00    +0.000 OA
BRANCH  19  23
ATOM     21  C1  UNL     1      18.461  39.483  29.410  0.00  0.00    +0.000 C 
ATOM     22  C2  UNL     1      17.654  40.676  29.826  0.00  0.00    +0.000 C 
ATOM     23  C3  UNL     1      18.016  41.554  30.785  0.00  0.00    +0.000 C 
ATOM     24  C4  UNL     1      17.046  42.643  31.162  0.00  0.00    +0.000 C 
ENDBRANCH  19  23
ENDBRANCH  18  19
ENDBRANCH  15  18
ENDBRANCH   1  15
BRANCH  14  25
ATOM     25  O6  UNL     1      18.710  38.744  34.849  0.00  0.00    +0.000 OA
BRANCH  25  26
ATOM     26  C20 UNL     1      18.564  37.746  33.879  0.00  0.00    +0.000 C 
ATOM     27  O7  UNL     1      19.212  36.666  33.962  0.00  0.00    +0.000 OA
BRANCH  26  28
ATOM     28  C21 UNL     1      17.653  37.991  32.749  0.00  0.00    +0.000 C 
ATOM     29  C22 UNL     1      16.416  38.480  32.919  0.00  0.00    +0.000 C 
BRANCH  29  30
ATOM     30  C23 UNL     1      15.463  38.727  31.806  0.00  0.00    +0.000 A 
ATOM     31  C24 UNL     1      14.682  39.895  31.841  0.00  0.00    +0.000 A 
ATOM     32  C25 UNL     1      13.774  40.175  30.816  0.00  0.00    +0.000 A 
ATOM     33  C26 UNL     1      13.638  39.298  29.736  0.00  0.00    +0.000 A 
ATOM     34  C27 UNL     1      14.421  38.139  29.683  0.00  0.00    +0.000 A 
ATOM     35  C28 UNL     1      15.331  37.855  30.706  0.00  0.00    +0.000 A 
BRANCH  33  36
ATOM     36  O8  UNL     1      12.728  39.588  28.723  0.00  0.00    +0.000 OA
ATOM     37  H24 UNL     1      12.286  38.854  28.182  0.00  0.00    +0.000 HD
ENDBRANCH  33  36
ENDBRANCH  29  30
ENDBRANCH  26  28
ENDBRANCH  25  26
ENDBRANCH  14  25
TORSDOF 9
ENDMDL
MODEL 5
REMARK VINA RESULT:    -6.017      3.983      9.001
REMARK INTER + INTRA:         -11.071
REMARK INTER:                  -9.475
REMARK INTRA:                  -1.596
REMARK UNBOUND:                -2.064
REMARK  Name = CNP0131556_1.pdb
REMARK  13 active torsions:
REMARK  status: ('A' for Active; 'I' for Inactive)
REMARK    1  A    between atoms: C1_1  and  C2_2
REMARK    2  A    between atoms: C3_3  and  C4_4
REMARK    3  A    between atoms: C3_3  and  C5_5
REMARK    4  A    between atoms: C5_5  and  O2_7
REMARK    5  A    between atoms: O2_7  and  C6_8
REMARK    6  A    between atoms: C6_8  and  C7_9
REMARK    7  A    between atoms: C6_8  and  C8_10
REMARK    8  A    between atoms: C6_8  and  C9_11
REMARK    9  A    between atoms: C19_24  and  O6_25
REMARK   10  A    between atoms: O6_25  and  C20_26
REMARK   11  A    between atoms: C20_26  and  C21_28
REMARK   12  A    between atoms: C22_29  and  C23_30
REMARK   13  A    between atoms: C26_33  and  O8_34
REMARK                            x       y       z     vdW  Elec       q    Type
REMARK                         _______ _______ _______ _____ _____    ______ ____
ROOT
ATOM      1  C9  UNL     1      20.086  35.777  39.301  0.00  0.00    +0.000 C 
ATOM      2  O3  UNL     1      20.315  37.002  39.997  0.00  0.00    +0.000 OA
ATOM      3  C10 UNL     1      20.119  38.075  39.159  0.00  0.00    +0.000 A 
ATOM      4  C11 UNL     1      20.169  39.421  39.518  0.00  0.00    +0.000 A 
ATOM      5  C12 UNL     1      19.940  40.389  38.526  0.00  0.00    +0.000 A 
ATOM      6  C13 UNL     1      19.667  39.989  37.200  0.00  0.00    +0.000 A 
ATOM      7  C14 UNL     1      19.439  40.923  36.185  0.00  0.00    +0.000 A 
ATOM      8  C15 UNL     1      19.184  40.478  34.890  0.00  0.00    +0.000 A 
ATOM      9  C16 UNL     1      19.162  39.101  34.635  0.00  0.00    +0.000 A 
ATOM     10  O4  UNL     1      18.939  38.681  33.469  0.00  0.00    +0.000 OA
ATOM     11  O5  UNL     1      19.378  38.231  35.618  0.00  0.00    +0.000 OA
ATOM     12  C17 UNL     1      19.628  38.612  36.866  0.00  0.00    +0.000 A 
ATOM     13  C18 UNL     1      19.860  37.674  37.878  0.00  0.00    +0.000 A 
ATOM     14  C19 UNL     1      19.941  36.184  37.791  0.00  0.00    +0.000 C 
ENDROOT
BRANCH   1  15
ATOM     15  C6  UNL     1      21.140  34.687  39.692  0.00  0.00    +0.000 C 
ATOM     16  C7  UNL     1      20.790  33.275  39.154  0.00  0.00    +0.000 C 
ATOM     17  C8  UNL     1      21.280  34.621  41.224  0.00  0.00    +0.000 C 
BRANCH  15  18
ATOM     18  O2  UNL     1      22.430  35.091  39.204  0.00  0.00    +0.000 OA
BRANCH  18  19
ATOM     19  C5  UNL     1      23.554  34.271  38.999  0.00  0.00    +0.000 C 
ATOM     20  O1  UNL     1      23.686  33.620  37.928  0.00  0.00    +0.000 OA
BRANCH  19  23
ATOM     21  C1  UNL     1      23.750  31.887  40.853  0.00  0.00    +0.000 C 
ATOM     22  C2  UNL     1      24.647  33.086  40.909  0.00  0.00    +0.000 C 
ATOM     23  C3  UNL     1      24.559  34.152  40.086  0.00  0.00    +0.000 C 
ATOM     24  C4  UNL     1      25.601  35.233  40.200  0.00  0.00    +0.000 C 
ENDBRANCH  19  23
ENDBRANCH  18  19
ENDBRANCH  15  18
ENDBRANCH   1  15
BRANCH  14  25
ATOM     25  O6  UNL     1      21.085  35.821  37.020  0.00  0.00    +0.000 OA
BRANCH  25  26
ATOM     26  C20 UNL     1      21.021  35.190  35.773  0.00  0.00    +0.000 C 
ATOM     27  O7  UNL     1      21.603  35.686  34.769  0.00  0.00    +0.000 OA
BRANCH  26  28
ATOM     28  C21 UNL     1      20.242  33.947  35.652  0.00  0.00    +0.000 C 
ATOM     29  C22 UNL     1      19.104  33.880  34.946  0.00  0.00    +0.000 C 
BRANCH  29  30
ATOM     30  C23 UNL     1      18.282  32.649  34.813  0.00  0.00    +0.000 A 
ATOM     31  C24 UNL     1      18.193  31.782  35.914  0.00  0.00    +0.000 A 
ATOM     32  C25 UNL     1      17.428  30.614  35.840  0.00  0.00    +0.000 A 
ATOM     33  C26 UNL     1      16.735  30.299  34.668  0.00  0.00    +0.000 A 
ATOM     34  C27 UNL     1      16.805  31.163  33.568  0.00  0.00    +0.000 A 
ATOM     35  C28 UNL     1      17.568  32.332  33.639  0.00  0.00    +0.000 A 
BRANCH  33  36
ATOM     36  O8  UNL     1      15.979  29.131  34.607  0.00  0.00    +0.000 OA
ATOM     37  H24 UNL     1      15.067  29.066  35.045  0.00  0.00    +0.000 HD
ENDBRANCH  33  36
ENDBRANCH  29  30
ENDBRANCH  26  28
ENDBRANCH  25  26
ENDBRANCH  14  25
TORSDOF 9
ENDMDL
MODEL 6
REMARK VINA RESULT:    -6.013      4.390      8.572
REMARK INTER + INTRA:         -11.065
REMARK INTER:                  -8.858
REMARK INTRA:                  -2.207
REMARK UNBOUND:                -2.064
REMARK  Name = CNP0131556_1.pdb
REMARK  13 active torsions:
REMARK  status: ('A' for Active; 'I' for Inactive)
REMARK    1  A    between atoms: C1_1  and  C2_2
REMARK    2  A    between atoms: C3_3  and  C4_4
REMARK    3  A    between atoms: C3_3  and  C5_5
REMARK    4  A    between atoms: C5_5  and  O2_7
REMARK    5  A    between atoms: O2_7  and  C6_8
REMARK    6  A    between atoms: C6_8  and  C7_9
REMARK    7  A    between atoms: C6_8  and  C8_10
REMARK    8  A    between atoms: C6_8  and  C9_11
REMARK    9  A    between atoms: C19_24  and  O6_25
REMARK   10  A    between atoms: O6_25  and  C20_26
REMARK   11  A    between atoms: C20_26  and  C21_28
REMARK   12  A    between atoms: C22_29  and  C23_30
REMARK   13  A    between atoms: C26_33  and  O8_34
REMARK                            x       y       z     vdW  Elec       q    Type
REMARK                         _______ _______ _______ _____ _____    ______ ____
ROOT
ATOM      1  C9  UNL     1      20.092  35.728  39.303  0.00  0.00    +0.000 C 
ATOM      2  O3  UNL     1      20.241  36.936  40.050  0.00  0.00    +0.000 OA
ATOM      3  C10 UNL     1      20.073  38.030  39.234  0.00  0.00    +0.000 A 
ATOM      4  C11 UNL     1      20.062  39.364  39.637  0.00  0.00    +0.000 A 
ATOM      5  C12 UNL     1      19.875  40.358  38.662  0.00  0.00    +0.000 A 
ATOM      6  C13 UNL     1      19.702  39.995  37.309  0.00  0.00    +0.000 A 
ATOM      7  C14 UNL     1      19.519  40.956  36.310  0.00  0.00    +0.000 A 
ATOM      8  C15 UNL     1      19.364  40.546  34.987  0.00  0.00    +0.000 A 
ATOM      9  C16 UNL     1      19.396  39.178  34.689  0.00  0.00    +0.000 A 
ATOM     10  O4  UNL     1      19.263  38.791  33.499  0.00  0.00    +0.000 OA
ATOM     11  O5  UNL     1      19.569  38.282  35.657  0.00  0.00    +0.000 OA
ATOM     12  C17 UNL     1      19.723  38.629  36.931  0.00  0.00    +0.000 A 
ATOM     13  C18 UNL     1      19.912  37.664  37.927  0.00  0.00    +0.000 A 
ATOM     14  C19 UNL     1      20.038  36.180  37.800  0.00  0.00    +0.000 C 
ENDROOT
BRANCH   1  15
ATOM     15  C6  UNL     1      21.146  34.652  39.731  0.00  0.00    +0.000 C 
ATOM     16  C7  UNL     1      20.942  33.283  39.034  0.00  0.00    +0.000 C 
ATOM     17  C8  UNL     1      21.098  34.452  41.258  0.00  0.00    +0.000 C 
BRANCH  15  18
ATOM     18  O2  UNL     1      22.464  35.154  39.450  0.00  0.00    +0.000 OA
BRANCH  18  19
ATOM     19  C5  UNL     1      23.652  34.409  39.357  0.00  0.00    +0.000 C 
ATOM     20  O1  UNL     1      24.054  33.719  40.331  0.00  0.00    +0.000 OA
BRANCH  19  23
ATOM     21  C1  UNL     1      26.116  36.138  39.034  0.00  0.00    +0.000 C 
ATOM     22  C2  UNL     1      25.547  35.255  37.964  0.00  0.00    +0.000 C 
ATOM     23  C3  UNL     1      24.447  34.487  38.105  0.00  0.00    +0.000 C 
ATOM     24  C4  UNL     1      24.062  33.573  36.971  0.00  0.00    +0.000 C 
ENDBRANCH  19  23
ENDBRANCH  18  19
ENDBRANCH  15  18
ENDBRANCH   1  15
BRANCH  14  25
ATOM     25  O6  UNL     1      21.241  35.871  37.098  0.00  0.00    +0.000 OA
BRANCH  25  26
ATOM     26  C20 UNL     1      21.308  35.652  35.718  0.00  0.00    +0.000 C 
ATOM     27  O7  UNL     1      20.418  34.978  35.128  0.00  0.00    +0.000 OA
BRANCH  26  28
ATOM     28  C21 UNL     1      22.449  36.205  34.972  0.00  0.00    +0.000 C 
ATOM     29  C22 UNL     1      23.272  37.124  35.499  0.00  0.00    +0.000 C 
BRANCH  29  30
ATOM     30  C23 UNL     1      24.425  37.718  34.774  0.00  0.00    +0.000 A 
ATOM     31  C24 UNL     1      25.675  37.083  34.871  0.00  0.00    +0.000 A 
ATOM     32  C25 UNL     1      26.789  37.600  34.204  0.00  0.00    +0.000 A 
ATOM     33  C26 UNL     1      26.670  38.753  33.423  0.00  0.00    +0.000 A 
ATOM     34  C27 UNL     1      25.427  39.386  33.307  0.00  0.00    +0.000 A 
ATOM     35  C28 UNL     1      24.310  38.872  33.972  0.00  0.00    +0.000 A 
BRANCH  33  36
ATOM     36  O8  UNL     1      27.789  39.259  32.766  0.00  0.00    +0.000 OA
ATOM     37  H24 UNL     1      27.770  40.161  32.305  0.00  0.00    +0.000 HD
ENDBRANCH  33  36
ENDBRANCH  29  30
ENDBRANCH  26  28
ENDBRANCH  25  26
ENDBRANCH  14  25
TORSDOF 9
ENDMDL
MODEL 7
REMARK VINA RESULT:    -6.010      2.064      7.188
REMARK INTER + INTRA:         -11.061
REMARK INTER:                  -9.452
REMARK INTRA:                  -1.609
REMARK UNBOUND:                -2.064
REMARK  Name = CNP0131556_1.pdb
REMARK  13 active torsions:
REMARK  status: ('A' for Active; 'I' for Inactive)
REMARK    1  A    between atoms: C1_1  and  C2_2
REMARK    2  A    between atoms: C3_3  and  C4_4
REMARK    3  A    between atoms: C3_3  and  C5_5
REMARK    4  A    between atoms: C5_5  and  O2_7
REMARK    5  A    between atoms: O2_7  and  C6_8
REMARK    6  A    between atoms: C6_8  and  C7_9
REMARK    7  A    between atoms: C6_8  and  C8_10
REMARK    8  A    between atoms: C6_8  and  C9_11
REMARK    9  A    between atoms: C19_24  and  O6_25
REMARK   10  A    between atoms: O6_25  and  C20_26
REMARK   11  A    between atoms: C20_26  and  C21_28
REMARK   12  A    between atoms: C22_29  and  C23_30
REMARK   13  A    between atoms: C26_33  and  O8_34
REMARK                            x       y       z     vdW  Elec       q    Type
REMARK                         _______ _______ _______ _____ _____    ______ ____
ROOT
ATOM      1  C9  UNL     1      20.327  40.682  34.924  0.00  0.00    +0.000 C 
ATOM      2  O3  UNL     1      20.076  41.301  36.185  0.00  0.00    +0.000 OA
ATOM      3  C10 UNL     1      20.024  40.356  37.184  0.00  0.00    +0.000 A 
ATOM      4  C11 UNL     1      19.884  40.605  38.548  0.00  0.00    +0.000 A 
ATOM      5  C12 UNL     1      19.853  39.513  39.429  0.00  0.00    +0.000 A 
ATOM      6  C13 UNL     1      19.962  38.198  38.927  0.00  0.00    +0.000 A 
ATOM      7  C14 UNL     1      19.929  37.085  39.773  0.00  0.00    +0.000 A 
ATOM      8  C15 UNL     1      20.029  35.807  39.227  0.00  0.00    +0.000 A 
ATOM      9  C16 UNL     1      20.160  35.668  37.840  0.00  0.00    +0.000 A 
ATOM     10  O4  UNL     1      20.247  34.520  37.329  0.00  0.00    +0.000 OA
ATOM     11  O5  UNL     1      20.193  36.742  37.055  0.00  0.00    +0.000 OA
ATOM     12  C17 UNL     1      20.098  37.978  37.534  0.00  0.00    +0.000 A 
ATOM     13  C18 UNL     1      20.126  39.088  36.683  0.00  0.00    +0.000 A 
ATOM     14  C19 UNL     1      20.194  39.140  35.190  0.00  0.00    +0.000 C 
ENDROOT
BRANCH   1  15
ATOM     15  C6  UNL     1      19.470  41.328  33.784  0.00  0.00    +0.000 C 
ATOM     16  C7  UNL     1      19.594  40.587  32.428  0.00  0.00    +0.000 C 
ATOM     17  C8  UNL     1      19.880  42.800  33.592  0.00  0.00    +0.000 C 
BRANCH  15  18
ATOM     18  O2  UNL     1      18.094  41.363  34.199  0.00  0.00    +0.000 OA
BRANCH  18  19
ATOM     19  C5  UNL     1      17.148  42.365  33.918  0.00  0.00    +0.000 C 
ATOM     20  O1  UNL     1      16.794  43.181  34.809  0.00  0.00    +0.000 OA
BRANCH  19  23
ATOM     21  C1  UNL     1      15.714  40.029  32.632  0.00  0.00    +0.000 C 
ATOM     22  C2  UNL     1      15.900  41.372  31.993  0.00  0.00    +0.000 C 
ATOM     23  C3  UNL     1      16.543  42.413  32.562  0.00  0.00    +0.000 C 
ATOM     24  C4  UNL     1      16.554  43.732  31.835  0.00  0.00    +0.000 C 
ENDBRANCH  19  23
ENDBRANCH  18  19
ENDBRANCH  15  18
ENDBRANCH   1  15
BRANCH  14  25
ATOM     25  O6  UNL     1      18.992  38.598  34.647  0.00  0.00    +0.000 OA
BRANCH  25  26
ATOM     26  C20 UNL     1      18.926  37.393  33.938  0.00  0.00    +0.000 C 
ATOM     27  O7  UNL     1      19.967  36.710  33.731  0.00  0.00    +0.000 OA
BRANCH  26  28
ATOM     28  C21 UNL     1      17.621  36.951  33.422  0.00  0.00    +0.000 C 
ATOM     29  C22 UNL     1      17.453  36.542  32.156  0.00  0.00    +0.000 C 
BRANCH  29  30
ATOM     30  C23 UNL     1      16.150  36.103  31.593  0.00  0.00    +0.000 A 
ATOM     31  C24 UNL     1      15.555  36.889  30.592  0.00  0.00    +0.000 A 
ATOM     32  C25 UNL     1      14.332  36.516  30.027  0.00  0.00    +0.000 A 
ATOM     33  C26 UNL     1      13.689  35.348  30.447  0.00  0.00    +0.000 A 
ATOM     34  C27 UNL     1      14.279  34.549  31.433  0.00  0.00    +0.000 A 
ATOM     35  C28 UNL     1      15.503  34.918  32.000  0.00  0.00    +0.000 A 
BRANCH  33  36
ATOM     36  O8  UNL     1      12.470  34.989  29.877  0.00  0.00    +0.000 OA
ATOM     37  H24 UNL     1      12.232  35.249  28.927  0.00  0.00    +0.000 HD
ENDBRANCH  33  36
ENDBRANCH  29  30
ENDBRANCH  26  28
ENDBRANCH  25  26
ENDBRANCH  14  25
TORSDOF 9
ENDMDL
MODEL 8
REMARK VINA RESULT:    -5.796      3.342      8.786
REMARK INTER + INTRA:         -10.740
REMARK INTER:                  -8.988
REMARK INTRA:                  -1.751
REMARK UNBOUND:                -2.064
REMARK  Name = CNP0131556_1.pdb
REMARK  13 active torsions:
REMARK  status: ('A' for Active; 'I' for Inactive)
REMARK    1  A    between atoms: C1_1  and  C2_2
REMARK    2  A    between atoms: C3_3  and  C4_4
REMARK    3  A    between atoms: C3_3  and  C5_5
REMARK    4  A    between atoms: C5_5  and  O2_7
REMARK    5  A    between atoms: O2_7  and  C6_8
REMARK    6  A    between atoms: C6_8  and  C7_9
REMARK    7  A    between atoms: C6_8  and  C8_10
REMARK    8  A    between atoms: C6_8  and  C9_11
REMARK    9  A    between atoms: C19_24  and  O6_25
REMARK   10  A    between atoms: O6_25  and  C20_26
REMARK   11  A    between atoms: C20_26  and  C21_28
REMARK   12  A    between atoms: C22_29  and  C23_30
REMARK   13  A    between atoms: C26_33  and  O8_34
REMARK                            x       y       z     vdW  Elec       q    Type
REMARK                         _______ _______ _______ _____ _____    ______ ____
ROOT
ATOM      1  C9  UNL     1      20.068  35.487  39.076  0.00  0.00    +0.000 C 
ATOM      2  O3  UNL     1      20.297  36.617  39.917  0.00  0.00    +0.000 OA
ATOM      3  C10 UNL     1      20.119  37.785  39.212  0.00  0.00    +0.000 A 
ATOM      4  C11 UNL     1      20.174  39.077  39.732  0.00  0.00    +0.000 A 
ATOM      5  C12 UNL     1      19.963  40.159  38.862  0.00  0.00    +0.000 A 
ATOM      6  C13 UNL     1      19.703  39.925  37.495  0.00  0.00    +0.000 A 
ATOM      7  C14 UNL     1      19.493  40.977  36.598  0.00  0.00    +0.000 A 
ATOM      8  C15 UNL     1      19.250  40.693  35.255  0.00  0.00    +0.000 A 
ATOM      9  C16 UNL     1      19.222  39.357  34.836  0.00  0.00    +0.000 A 
ATOM     10  O4  UNL     1      19.009  39.083  33.626  0.00  0.00    +0.000 OA
ATOM     11  O5  UNL     1      19.420  38.373  35.709  0.00  0.00    +0.000 OA
ATOM     12  C17 UNL     1      19.658  38.599  36.997  0.00  0.00    +0.000 A 
ATOM     13  C18 UNL     1      19.872  37.543  37.890  0.00  0.00    +0.000 A 
ATOM     14  C19 UNL     1      19.943  36.074  37.624  0.00  0.00    +0.000 C 
ENDROOT
BRANCH   1  15
ATOM     15  C6  UNL     1      21.109  34.348  39.343  0.00  0.00    +0.000 C 
ATOM     16  C7  UNL     1      20.858  33.586  40.669  0.00  0.00    +0.000 C 
ATOM     17  C8  UNL     1      22.533  34.935  39.362  0.00  0.00    +0.000 C 
BRANCH  15  18
ATOM     18  O2  UNL     1      21.086  33.428  38.238  0.00  0.00    +0.000 OA
BRANCH  18  19
ATOM     19  C5  UNL     1      20.665  32.087  38.260  0.00  0.00    +0.000 C 
ATOM     20  O1  UNL     1      21.430  31.181  38.685  0.00  0.00    +0.000 OA
BRANCH  19  23
ATOM     21  C1  UNL     1      20.083  31.590  35.331  0.00  0.00    +0.000 C 
ATOM     22  C2  UNL     1      19.061  31.529  36.425  0.00  0.00    +0.000 C 
ATOM     23  C3  UNL     1      19.317  31.754  37.731  0.00  0.00    +0.000 C 
ATOM     24  C4  UNL     1      18.204  31.551  38.725  0.00  0.00    +0.000 C 
ENDBRANCH  19  23
ENDBRANCH  18  19
ENDBRANCH  15  18
ENDBRANCH   1  15
BRANCH  14  25
ATOM     25  O6  UNL     1      21.093  35.797  36.827  0.00  0.00    +0.000 OA
BRANCH  25  26
ATOM     26  C20 UNL     1      21.039  35.312  35.516  0.00  0.00    +0.000 C 
ATOM     27  O7  UNL     1      22.097  35.128  34.854  0.00  0.00    +0.000 OA
BRANCH  26  28
ATOM     28  C21 UNL     1      19.721  35.043  34.919  0.00  0.00    +0.000 C 
ATOM     29  C22 UNL     1      19.390  35.469  33.692  0.00  0.00    +0.000 C 
BRANCH  29  30
ATOM     30  C23 UNL     1      18.066  35.231  33.060  0.00  0.00    +0.000 A 
ATOM     31  C24 UNL     1      17.729  33.919  32.687  0.00  0.00    +0.000 A 
ATOM     32  C25 UNL     1      16.494  33.643  32.093  0.00  0.00    +0.000 A 
ATOM     33  C26 UNL     1      15.573  34.671  31.872  0.00  0.00    +0.000 A 
ATOM     34  C27 UNL     1      15.892  35.980  32.254  0.00  0.00    +0.000 A 
ATOM     35  C28 UNL     1      17.126  36.261  32.848  0.00  0.00    +0.000 A 
BRANCH  33  36
ATOM     36  O8  UNL     1      14.347  34.383  31.278  0.00  0.00    +0.000 OA
ATOM     37  H24 UNL     1      13.478  34.452  31.796  0.00  0.00    +0.000 HD
ENDBRANCH  33  36
ENDBRANCH  29  30
ENDBRANCH  26  28
ENDBRANCH  25  26
ENDBRANCH  14  25
TORSDOF 9
ENDMDL
MODEL 9
REMARK VINA RESULT:    -5.766      2.764      4.608
REMARK INTER + INTRA:         -10.695
REMARK INTER:                  -9.177
REMARK INTRA:                  -1.518
REMARK UNBOUND:                -2.064
REMARK  Name = CNP0131556_1.pdb
REMARK  13 active torsions:
REMARK  status: ('A' for Active; 'I' for Inactive)
REMARK    1  A    between atoms: C1_1  and  C2_2
REMARK    2  A    between atoms: C3_3  and  C4_4
REMARK    3  A    between atoms: C3_3  and  C5_5
REMARK    4  A    between atoms: C5_5  and  O2_7
REMARK    5  A    between atoms: O2_7  and  C6_8
REMARK    6  A    between atoms: C6_8  and  C7_9
REMARK    7  A    between atoms: C6_8  and  C8_10
REMARK    8  A    between atoms: C6_8  and  C9_11
REMARK    9  A    between atoms: C19_24  and  O6_25
REMARK   10  A    between atoms: O6_25  and  C20_26
REMARK   11  A    between atoms: C20_26  and  C21_28
REMARK   12  A    between atoms: C22_29  and  C23_30
REMARK   13  A    between atoms: C26_33  and  O8_34
REMARK                            x       y       z     vdW  Elec       q    Type
REMARK                         _______ _______ _______ _____ _____    ______ ____
ROOT
ATOM      1  C9  UNL     1      17.965  37.853  34.752  0.00  0.00    +0.000 C 
ATOM      2  O3  UNL     1      17.393  38.537  33.637  0.00  0.00    +0.000 OA
ATOM      3  C10 UNL     1      16.801  37.642  32.776  0.00  0.00    +0.000 A 
ATOM      4  C11 UNL     1      16.073  37.961  31.631  0.00  0.00    +0.000 A 
ATOM      5  C12 UNL     1      15.535  36.913  30.866  0.00  0.00    +0.000 A 
ATOM      6  C13 UNL     1      15.737  35.573  31.263  0.00  0.00    +0.000 A 
ATOM      7  C14 UNL     1      15.221  34.504  30.525  0.00  0.00    +0.000 A 
ATOM      8  C15 UNL     1      15.458  33.199  30.953  0.00  0.00    +0.000 A 
ATOM      9  C16 UNL     1      16.209  32.990  32.116  0.00  0.00    +0.000 A 
ATOM     10  O4  UNL     1      16.437  31.818  32.515  0.00  0.00    +0.000 OA
ATOM     11  O5  UNL     1      16.686  34.024  32.804  0.00  0.00    +0.000 OA
ATOM     12  C17 UNL     1      16.487  35.283  32.430  0.00  0.00    +0.000 A 
ATOM     13  C18 UNL     1      17.009  36.350  33.170  0.00  0.00    +0.000 A 
ATOM     14  C19 UNL     1      17.878  36.328  34.386  0.00  0.00    +0.000 C 
ENDROOT
BRANCH   1  15
ATOM     15  C6  UNL     1      19.353  38.457  35.149  0.00  0.00    +0.000 C 
ATOM     16  C7  UNL     1      19.293  39.971  35.475  0.00  0.00    +0.000 C 
ATOM     17  C8  UNL     1      20.368  38.226  34.014  0.00  0.00    +0.000 C 
BRANCH  15  18
ATOM     18  O2  UNL     1      19.869  37.733  36.280  0.00  0.00    +0.000 OA
BRANCH  18  19
ATOM     19  C5  UNL     1      20.530  38.268  37.399  0.00  0.00    +0.000 C 
ATOM     20  O1  UNL     1      21.723  38.664  37.311  0.00  0.00    +0.000 OA
BRANCH  19  23
ATOM     21  C1  UNL     1      19.952  40.829  38.907  0.00  0.00    +0.000 C 
ATOM     22  C2  UNL     1      19.550  39.460  39.366  0.00  0.00    +0.000 C 
ATOM     23  C3  UNL     1      19.810  38.317  38.698  0.00  0.00    +0.000 C 
ATOM     24  C4  UNL     1      19.246  37.028  39.236  0.00  0.00    +0.000 C 
ENDBRANCH  19  23
ENDBRANCH  18  19
ENDBRANCH  15  18
ENDBRANCH   1  15
BRANCH  14  25
ATOM     25  O6  UNL     1      19.149  35.780  34.044  0.00  0.00    +0.000 OA
BRANCH  25  26
ATOM     26  C20 UNL     1      19.679  34.615  34.610  0.00  0.00    +0.000 C 
ATOM     27  O7  UNL     1      19.538  33.500  34.038  0.00  0.00    +0.000 OA
BRANCH  26  28
ATOM     28  C21 UNL     1      20.384  34.717  35.897  0.00  0.00    +0.000 C 
ATOM     29  C22 UNL     1      20.092  33.924  36.939  0.00  0.00    +0.000 C 
BRANCH  29  30
ATOM     30  C23 UNL     1      20.770  34.005  38.259  0.00  0.00    +0.000 A 
ATOM     31  C24 UNL     1      21.982  34.711  38.346  0.00  0.00    +0.000 A 
ATOM     32  C25 UNL     1      22.656  34.820  39.566  0.00  0.00    +0.000 A 
ATOM     33  C26 UNL     1      22.125  34.233  40.718  0.00  0.00    +0.000 A 
ATOM     34  C27 UNL     1      20.911  33.540  40.646  0.00  0.00    +0.000 A 
ATOM     35  C28 UNL     1      20.233  33.429  39.429  0.00  0.00    +0.000 A 
BRANCH  33  36
ATOM     36  O8  UNL     1      22.808  34.348  41.927  0.00  0.00    +0.000 OA
ATOM     37  H24 UNL     1      23.070  33.531  42.467  0.00  0.00    +0.000 HD
ENDBRANCH  33  36
ENDBRANCH  29  30
ENDBRANCH  26  28
ENDBRANCH  25  26
ENDBRANCH  14  25
TORSDOF 9
ENDMDL
MODEL 10
REMARK VINA RESULT:    -5.760      3.971      9.190
REMARK INTER + INTRA:         -10.686
REMARK INTER:                  -8.691
REMARK INTRA:                  -1.996
REMARK UNBOUND:                -2.064
REMARK  Name = CNP0131556_1.pdb
REMARK  13 active torsions:
REMARK  status: ('A' for Active; 'I' for Inactive)
REMARK    1  A    between atoms: C1_1  and  C2_2
REMARK    2  A    between atoms: C3_3  and  C4_4
REMARK    3  A    between atoms: C3_3  and  C5_5
REMARK    4  A    between atoms: C5_5  and  O2_7
REMARK    5  A    between atoms: O2_7  and  C6_8
REMARK    6  A    between atoms: C6_8  and  C7_9
REMARK    7  A    between atoms: C6_8  and  C8_10
REMARK    8  A    between atoms: C6_8  and  C9_11
REMARK    9  A    between atoms: C19_24  and  O6_25
REMARK   10  A    between atoms: O6_25  and  C20_26
REMARK   11  A    between atoms: C20_26  and  C21_28
REMARK   12  A    between atoms: C22_29  and  C23_30
REMARK   13  A    between atoms: C26_33  and  O8_34
REMARK                            x       y       z     vdW  Elec       q    Type
REMARK                         _______ _______ _______ _____ _____    ______ ____
ROOT
ATOM      1  C9  UNL     1      20.073  35.580  39.119  0.00  0.00    +0.000 C 
ATOM      2  O3  UNL     1      20.345  36.757  39.879  0.00  0.00    +0.000 OA
ATOM      3  C10 UNL     1      20.139  37.883  39.116  0.00  0.00    +0.000 A 
ATOM      4  C11 UNL     1      20.224  39.203  39.555  0.00  0.00    +0.000 A 
ATOM      5  C12 UNL     1      19.978  40.233  38.633  0.00  0.00    +0.000 A 
ATOM      6  C13 UNL     1      19.654  39.920  37.295  0.00  0.00    +0.000 A 
ATOM      7  C14 UNL     1      19.408  40.918  36.348  0.00  0.00    +0.000 A 
ATOM      8  C15 UNL     1      19.103  40.557  35.037  0.00  0.00    +0.000 A 
ATOM      9  C16 UNL     1      19.049  39.199  34.699  0.00  0.00    +0.000 A 
ATOM     10  O4  UNL     1      18.780  38.855  33.518  0.00  0.00    +0.000 OA
ATOM     11  O5  UNL     1      19.284  38.267  35.619  0.00  0.00    +0.000 OA
ATOM     12  C17 UNL     1      19.581  38.567  36.879  0.00  0.00    +0.000 A 
ATOM     13  C18 UNL     1      19.831  37.565  37.823  0.00  0.00    +0.000 A 
ATOM     14  C19 UNL     1      19.884  36.082  37.642  0.00  0.00    +0.000 C 
ENDROOT
BRANCH   1  15
ATOM     15  C6  UNL     1      21.120  34.453  39.406  0.00  0.00    +0.000 C 
ATOM     16  C7  UNL     1      20.988  33.839  40.823  0.00  0.00    +0.000 C 
ATOM     17  C8  UNL     1      22.547  35.006  39.228  0.00  0.00    +0.000 C 
BRANCH  15  18
ATOM     18  O2  UNL     1      20.980  33.424  38.411  0.00  0.00    +0.000 OA
BRANCH  18  19
ATOM     19  C5  UNL     1      21.045  32.034  38.615  0.00  0.00    +0.000 C 
ATOM     20  O1  UNL     1      22.077  31.506  39.107  0.00  0.00    +0.000 OA
BRANCH  19  23
ATOM     21  C1  UNL     1      21.284  29.642  36.775  0.00  0.00    +0.000 C 
ATOM     22  C2  UNL     1      20.001  30.128  37.379  0.00  0.00    +0.000 C 
ATOM     23  C3  UNL     1      19.891  31.197  38.196  0.00  0.00    +0.000 C 
ATOM     24  C4  UNL     1      18.548  31.497  38.807  0.00  0.00    +0.000 C 
ENDBRANCH  19  23
ENDBRANCH  18  19
ENDBRANCH  15  18
ENDBRANCH   1  15
BRANCH  14  25
ATOM     25  O6  UNL     1      20.995  35.750  36.811  0.00  0.00    +0.000 OA
BRANCH  25  26
ATOM     26  C20 UNL     1      20.879  35.284  35.498  0.00  0.00    +0.000 C 
ATOM     27  O7  UNL     1      21.641  35.718  34.590  0.00  0.00    +0.000 OA
BRANCH  26  28
ATOM     28  C21 UNL     1      19.836  34.292  35.193  0.00  0.00    +0.000 C 
ATOM     29  C22 UNL     1      20.124  33.014  34.905  0.00  0.00    +0.000 C 
BRANCH  29  30
ATOM     30  C23 UNL     1      19.101  31.987  34.577  0.00  0.00    +0.000 A 
ATOM     31  C24 UNL     1      17.826  32.104  35.156  0.00  0.00    +0.000 A 
ATOM     32  C25 UNL     1      16.829  31.165  34.876  0.00  0.00    +0.000 A 
ATOM     33  C26 UNL     1      17.086  30.103  34.005  0.00  0.00    +0.000 A 
ATOM     34  C27 UNL     1      18.348  29.984  33.411  0.00  0.00    +0.000 A 
ATOM     35  C28 UNL     1      19.349  30.921  33.688  0.00  0.00    +0.000 A 
BRANCH  33  36
ATOM     36  O8  UNL     1      16.084  29.174  33.736  0.00  0.00    +0.000 OA
ATOM     37  H24 UNL     1      15.126  29.460  33.571  0.00  0.00    +0.000 HD
ENDBRANCH  33  36
ENDBRANCH  29  30
ENDBRANCH  26  28
ENDBRANCH  25  26
ENDBRANCH  14  25
TORSDOF 9
ENDMDL
