MODEL 1
REMARK VINA RESULT:    -8.604      0.000      0.000
REMARK INTER + INTRA:         -10.583
REMARK INTER:                  -9.610
REMARK INTRA:                  -0.973
REMARK UNBOUND:                -0.973
REMARK  Name = CNP0105209_1.pdb
REMARK  2 active torsions:
REMARK  status: ('A' for Active; 'I' for Inactive)
REMARK    1  A    between atoms: N1_7  and  C5_8
REMARK    2  A    between atoms: C12_17  and  C13_18
REMARK                            x       y       z     vdW  Elec       q    Type
REMARK                         _______ _______ _______ _____ _____    ______ ____
ROOT
ATOM      1  O1  UNL     1      56.816  55.618  68.891  0.00  0.00    +0.000 OA
ATOM      2  C1  UNL     1      57.722  55.643  69.767  0.00  0.00    +0.000 C 
ATOM      3  C2  UNL     1      58.688  56.783  69.934  0.00  0.00    +0.000 C 
ATOM      4  C3  UNL     1      59.460  56.432  71.204  0.00  0.00    +0.000 C 
ATOM      5  C4  UNL     1      58.871  55.117  71.634  0.00  0.00    +0.000 C 
ATOM      6  O2  UNL     1      59.209  54.511  72.687  0.00  0.00    +0.000 OA
ATOM      7  N1  UNL     1      57.864  54.642  70.757  0.00  0.00    +0.000 N 
ATOM      8  C11 UNL     1      60.929  56.374  70.732  0.00  0.00    +0.000 C 
ATOM      9  O3  UNL     1      60.967  56.304  69.326  0.00  0.00    +0.000 OA
ATOM     10  C12 UNL     1      59.777  56.889  68.847  0.00  0.00    +0.000 C 
ATOM     11  C19 UNL     1      61.709  57.578  71.215  0.00  0.00    +0.000 C 
ATOM     12  O4  UNL     1      61.429  58.775  70.940  0.00  0.00    +0.000 OA
ATOM     13  C20 UNL     1      62.833  57.166  72.043  0.00  0.00    +0.000 A 
ATOM     14  C21 UNL     1      63.787  57.948  72.697  0.00  0.00    +0.000 A 
ATOM     15  C22 UNL     1      64.789  57.294  73.433  0.00  0.00    +0.000 A 
ATOM     16  C23 UNL     1      64.821  55.886  73.499  0.00  0.00    +0.000 A 
ATOM     17  C24 UNL     1      63.849  55.122  72.829  0.00  0.00    +0.000 A 
ATOM     18  C25 UNL     1      62.861  55.796  72.110  0.00  0.00    +0.000 A 
ATOM     19  C26 UNL     1      61.762  55.258  71.321  0.00  0.00    +0.000 C 
ATOM     20  O5  UNL     1      61.590  54.032  71.089  0.00  0.00    +0.000 OA
ENDROOT
BRANCH   7  21
ATOM     21  C5  UNL     1      57.229  53.352  70.780  0.00  0.00    +0.000 A 
ATOM     22  C6  UNL     1      57.630  52.348  69.882  0.00  0.00    +0.000 A 
ATOM     23  C7  UNL     1      57.016  51.092  69.906  0.00  0.00    +0.000 A 
ATOM     24  C8  UNL     1      55.997  50.828  70.827  0.00  0.00    +0.000 A 
ATOM     25  I1  UNL     1      55.073  48.933  70.863  0.00  0.00    +0.000 I 
ATOM     26  C9  UNL     1      55.592  51.821  71.723  0.00  0.00    +0.000 A 
ATOM     27  C10 UNL     1      56.205  53.078  71.701  0.00  0.00    +0.000 A 
ENDBRANCH   7  21
BRANCH  10  28
ATOM     28  C13 UNL     1      59.392  56.278  67.516  0.00  0.00    +0.000 A 
ATOM     29  C14 UNL     1      58.662  57.019  66.566  0.00  0.00    +0.000 A 
ATOM     30  C15 UNL     1      58.358  56.464  65.320  0.00  0.00    +0.000 A 
ATOM     31  C16 UNL     1      58.783  55.169  65.007  0.00  0.00    +0.000 A 
ATOM     32  C17 UNL     1      59.518  54.431  65.938  0.00  0.00    +0.000 A 
ATOM     33  C18 UNL     1      59.828  54.983  67.184  0.00  0.00    +0.000 A 
ENDBRANCH  10  28
TORSDOF 2
ENDMDL
MODEL 2
REMARK VINA RESULT:    -8.120      2.847      6.630
REMARK INTER + INTRA:         -10.042
REMARK INTER:                  -9.094
REMARK INTRA:                  -0.948
REMARK UNBOUND:                -0.973
REMARK  Name = CNP0105209_1.pdb
REMARK  2 active torsions:
REMARK  status: ('A' for Active; 'I' for Inactive)
REMARK    1  A    between atoms: N1_7  and  C5_8
REMARK    2  A    between atoms: C12_17  and  C13_18
REMARK                            x       y       z     vdW  Elec       q    Type
REMARK                         _______ _______ _______ _____ _____    ______ ____
ROOT
ATOM      1  O1  UNL     1      60.259  56.487  72.787  0.00  0.00    +0.000 OA
ATOM      2  C1  UNL     1      60.297  56.163  71.570  0.00  0.00    +0.000 C 
ATOM      3  C2  UNL     1      59.541  56.886  70.491  0.00  0.00    +0.000 C 
ATOM      4  C3  UNL     1      60.034  56.242  69.197  0.00  0.00    +0.000 C 
ATOM      5  C4  UNL     1      61.015  55.201  69.662  0.00  0.00    +0.000 C 
ATOM      6  O2  UNL     1      61.689  54.477  68.879  0.00  0.00    +0.000 OA
ATOM      7  N1  UNL     1      61.139  55.140  71.072  0.00  0.00    +0.000 N 
ATOM      8  C11 UNL     1      58.745  55.692  68.550  0.00  0.00    +0.000 C 
ATOM      9  O3  UNL     1      57.715  55.664  69.510  0.00  0.00    +0.000 OA
ATOM     10  C12 UNL     1      58.018  56.645  70.476  0.00  0.00    +0.000 C 
ATOM     11  C19 UNL     1      58.326  56.529  67.361  0.00  0.00    +0.000 C 
ATOM     12  O4  UNL     1      58.052  57.758  67.406  0.00  0.00    +0.000 OA
ATOM     13  C20 UNL     1      58.282  55.721  66.152  0.00  0.00    +0.000 A 
ATOM     14  C21 UNL     1      57.964  56.096  64.845  0.00  0.00    +0.000 A 
ATOM     15  C22 UNL     1      57.985  55.107  63.847  0.00  0.00    +0.000 A 
ATOM     16  C23 UNL     1      58.316  53.775  64.170  0.00  0.00    +0.000 A 
ATOM     17  C24 UNL     1      58.629  53.423  65.495  0.00  0.00    +0.000 A 
ATOM     18  C25 UNL     1      58.608  54.425  66.466  0.00  0.00    +0.000 A 
ATOM     19  C26 UNL     1      58.869  54.334  67.895  0.00  0.00    +0.000 C 
ATOM     20  O5  UNL     1      59.078  53.254  68.510  0.00  0.00    +0.000 OA
ENDROOT
BRANCH   7  21
ATOM     21  C5  UNL     1      61.849  54.153  71.840  0.00  0.00    +0.000 A 
ATOM     22  C6  UNL     1      63.153  54.413  72.295  0.00  0.00    +0.000 A 
ATOM     23  C7  UNL     1      63.844  53.456  73.045  0.00  0.00    +0.000 A 
ATOM     24  C8  UNL     1      63.238  52.233  73.348  0.00  0.00    +0.000 A 
ATOM     25  I1  UNL     1      64.281  50.791  74.480  0.00  0.00    +0.000 I 
ATOM     26  C9  UNL     1      61.942  51.966  72.898  0.00  0.00    +0.000 A 
ATOM     27  C10 UNL     1      61.249  52.921  72.149  0.00  0.00    +0.000 A 
ENDBRANCH   7  21
BRANCH  10  28
ATOM     28  C13 UNL     1      57.435  56.255  71.819  0.00  0.00    +0.000 A 
ATOM     29  C14 UNL     1      57.149  57.232  72.792  0.00  0.00    +0.000 A 
ATOM     30  C15 UNL     1      56.562  56.868  74.007  0.00  0.00    +0.000 A 
ATOM     31  C16 UNL     1      56.250  55.529  74.261  0.00  0.00    +0.000 A 
ATOM     32  C17 UNL     1      56.518  54.555  73.297  0.00  0.00    +0.000 A 
ATOM     33  C18 UNL     1      57.103  54.914  72.079  0.00  0.00    +0.000 A 
ENDBRANCH  10  28
TORSDOF 2
ENDMDL
MODEL 3
REMARK VINA RESULT:    -8.059      2.615      6.301
REMARK INTER + INTRA:          -9.975
REMARK INTER:                  -8.995
REMARK INTRA:                  -0.980
REMARK UNBOUND:                -0.973
REMARK  Name = CNP0105209_1.pdb
REMARK  2 active torsions:
REMARK  status: ('A' for Active; 'I' for Inactive)
REMARK    1  A    between atoms: N1_7  and  C5_8
REMARK    2  A    between atoms: C12_17  and  C13_18
REMARK                            x       y       z     vdW  Elec       q    Type
REMARK                         _______ _______ _______ _____ _____    ______ ____
ROOT
ATOM      1  O1  UNL     1      60.159  57.594  69.363  0.00  0.00    +0.000 OA
ATOM      2  C1  UNL     1      59.175  56.983  69.859  0.00  0.00    +0.000 C 
ATOM      3  C2  UNL     1      58.529  57.361  71.162  0.00  0.00    +0.000 C 
ATOM      4  C3  UNL     1      57.303  56.454  71.246  0.00  0.00    +0.000 C 
ATOM      5  C4  UNL     1      57.373  55.634  69.988  0.00  0.00    +0.000 C 
ATOM      6  O2  UNL     1      56.497  54.790  69.654  0.00  0.00    +0.000 OA
ATOM      7  N1  UNL     1      58.505  55.932  69.188  0.00  0.00    +0.000 N 
ATOM      8  C11 UNL     1      57.520  55.670  72.558  0.00  0.00    +0.000 C 
ATOM      9  O3  UNL     1      58.860  55.806  72.969  0.00  0.00    +0.000 OA
ATOM     10  C12 UNL     1      59.342  57.014  72.426  0.00  0.00    +0.000 C 
ATOM     11  C19 UNL     1      56.588  56.155  73.648  0.00  0.00    +0.000 C 
ATOM     12  O4  UNL     1      56.551  57.333  74.091  0.00  0.00    +0.000 OA
ATOM     13  C20 UNL     1      55.739  55.072  74.120  0.00  0.00    +0.000 A 
ATOM     14  C21 UNL     1      54.738  55.088  75.093  0.00  0.00    +0.000 A 
ATOM     15  C22 UNL     1      54.064  53.887  75.373  0.00  0.00    +0.000 A 
ATOM     16  C23 UNL     1      54.401  52.704  74.684  0.00  0.00    +0.000 A 
ATOM     17  C24 UNL     1      55.415  52.714  73.710  0.00  0.00    +0.000 A 
ATOM     18  C25 UNL     1      56.064  53.921  73.446  0.00  0.00    +0.000 A 
ATOM     19  C26 UNL     1      57.145  54.205  72.514  0.00  0.00    +0.000 C 
ATOM     20  O5  UNL     1      57.745  53.328  71.836  0.00  0.00    +0.000 OA
ENDROOT
BRANCH   7  21
ATOM     21  C5  UNL     1      58.958  55.219  68.025  0.00  0.00    +0.000 A 
ATOM     22  C6  UNL     1      59.941  54.221  68.143  0.00  0.00    +0.000 A 
ATOM     23  C7  UNL     1      60.380  53.524  67.013  0.00  0.00    +0.000 A 
ATOM     24  C8  UNL     1      59.843  53.819  65.756  0.00  0.00    +0.000 A 
ATOM     25  I1  UNL     1      60.508  52.767  64.053  0.00  0.00    +0.000 I 
ATOM     26  C9  UNL     1      58.868  54.811  65.630  0.00  0.00    +0.000 A 
ATOM     27  C10 UNL     1      58.426  55.508  66.757  0.00  0.00    +0.000 A 
ENDBRANCH   7  21
BRANCH  10  28
ATOM     28  C13 UNL     1      60.837  56.927  72.202  0.00  0.00    +0.000 A 
ATOM     29  C14 UNL     1      61.637  58.087  72.211  0.00  0.00    +0.000 A 
ATOM     30  C15 UNL     1      63.023  57.991  72.056  0.00  0.00    +0.000 A 
ATOM     31  C16 UNL     1      63.624  56.740  71.896  0.00  0.00    +0.000 A 
ATOM     32  C17 UNL     1      62.841  55.582  71.899  0.00  0.00    +0.000 A 
ATOM     33  C18 UNL     1      61.455  55.673  72.056  0.00  0.00    +0.000 A 
ENDBRANCH  10  28
TORSDOF 2
ENDMDL
MODEL 4
REMARK VINA RESULT:    -7.094      4.643      7.391
REMARK INTER + INTRA:          -8.897
REMARK INTER:                  -7.904
REMARK INTRA:                  -0.992
REMARK UNBOUND:                -0.973
REMARK  Name = CNP0105209_1.pdb
REMARK  2 active torsions:
REMARK  status: ('A' for Active; 'I' for Inactive)
REMARK    1  A    between atoms: N1_7  and  C5_8
REMARK    2  A    between atoms: C12_17  and  C13_18
REMARK                            x       y       z     vdW  Elec       q    Type
REMARK                         _______ _______ _______ _____ _____    ______ ____
ROOT
ATOM      1  O1  UNL     1      63.776  55.406  74.310  0.00  0.00    +0.000 OA
ATOM      2  C1  UNL     1      63.498  54.278  73.821  0.00  0.00    +0.000 C 
ATOM      3  C2  UNL     1      63.710  53.920  72.377  0.00  0.00    +0.000 C 
ATOM      4  C3  UNL     1      63.392  52.427  72.314  0.00  0.00    +0.000 C 
ATOM      5  C4  UNL     1      63.015  52.078  73.727  0.00  0.00    +0.000 C 
ATOM      6  O2  UNL     1      62.732  50.909  74.107  0.00  0.00    +0.000 OA
ATOM      7  N1  UNL     1      63.049  53.189  74.606  0.00  0.00    +0.000 N 
ATOM      8  C11 UNL     1      62.245  52.343  71.285  0.00  0.00    +0.000 C 
ATOM      9  O3  UNL     1      61.704  53.627  71.080  0.00  0.00    +0.000 OA
ATOM     10  C12 UNL     1      62.716  54.559  71.386  0.00  0.00    +0.000 C 
ATOM     11  C19 UNL     1      62.727  51.763  69.972  0.00  0.00    +0.000 C 
ATOM     12  O4  UNL     1      63.637  52.260  69.257  0.00  0.00    +0.000 OA
ATOM     13  C20 UNL     1      61.992  50.551  69.643  0.00  0.00    +0.000 A 
ATOM     14  C21 UNL     1      62.128  49.702  68.544  0.00  0.00    +0.000 A 
ATOM     15  C22 UNL     1      61.276  48.588  68.455  0.00  0.00    +0.000 A 
ATOM     16  C23 UNL     1      60.312  48.348  69.456  0.00  0.00    +0.000 A 
ATOM     17  C24 UNL     1      60.194  49.220  70.552  0.00  0.00    +0.000 A 
ATOM     18  C25 UNL     1      61.056  50.315  70.619  0.00  0.00    +0.000 A 
ATOM     19  C26 UNL     1      61.136  51.370  71.619  0.00  0.00    +0.000 C 
ATOM     20  O5  UNL     1      60.329  51.499  72.579  0.00  0.00    +0.000 OA
ENDROOT
BRANCH   7  21
ATOM     21  C5  UNL     1      62.584  53.236  75.966  0.00  0.00    +0.000 A 
ATOM     22  C6  UNL     1      63.490  53.094  77.031  0.00  0.00    +0.000 A 
ATOM     23  C7  UNL     1      63.040  53.144  78.354  0.00  0.00    +0.000 A 
ATOM     24  C8  UNL     1      61.682  53.336  78.625  0.00  0.00    +0.000 A 
ATOM     25  I1  UNL     1      61.005  53.412  80.621  0.00  0.00    +0.000 I 
ATOM     26  C9  UNL     1      60.774  53.477  77.572  0.00  0.00    +0.000 A 
ATOM     27  C10 UNL     1      61.222  53.429  76.248  0.00  0.00    +0.000 A 
ENDBRANCH   7  21
BRANCH  10  28
ATOM     28  C13 UNL     1      62.103  55.858  71.868  0.00  0.00    +0.000 A 
ATOM     29  C14 UNL     1      62.763  57.086  71.665  0.00  0.00    +0.000 A 
ATOM     30  C15 UNL     1      62.164  58.283  72.066  0.00  0.00    +0.000 A 
ATOM     31  C16 UNL     1      60.902  58.269  72.666  0.00  0.00    +0.000 A 
ATOM     32  C17 UNL     1      60.234  57.057  72.860  0.00  0.00    +0.000 A 
ATOM     33  C18 UNL     1      60.828  55.856  72.459  0.00  0.00    +0.000 A 
ENDBRANCH  10  28
TORSDOF 2
ENDMDL
MODEL 5
REMARK VINA RESULT:    -7.043      3.514      5.553
REMARK INTER + INTRA:          -8.840
REMARK INTER:                  -7.857
REMARK INTRA:                  -0.982
REMARK UNBOUND:                -0.973
REMARK  Name = CNP0105209_1.pdb
REMARK  2 active torsions:
REMARK  status: ('A' for Active; 'I' for Inactive)
REMARK    1  A    between atoms: N1_7  and  C5_8
REMARK    2  A    between atoms: C12_17  and  C13_18
REMARK                            x       y       z     vdW  Elec       q    Type
REMARK                         _______ _______ _______ _____ _____    ______ ____
ROOT
ATOM      1  O1  UNL     1      60.079  51.991  71.736  0.00  0.00    +0.000 OA
ATOM      2  C1  UNL     1      59.953  53.245  71.735  0.00  0.00    +0.000 C 
ATOM      3  C2  UNL     1      59.212  54.008  70.674  0.00  0.00    +0.000 C 
ATOM      4  C3  UNL     1      59.192  55.444  71.195  0.00  0.00    +0.000 C 
ATOM      5  C4  UNL     1      59.937  55.366  72.499  0.00  0.00    +0.000 C 
ATOM      6  O2  UNL     1      60.094  56.349  73.273  0.00  0.00    +0.000 OA
ATOM      7  N1  UNL     1      60.413  54.064  72.794  0.00  0.00    +0.000 N 
ATOM      8  C11 UNL     1      59.897  56.245  70.079  0.00  0.00    +0.000 C 
ATOM      9  O3  UNL     1      60.581  55.358  69.226  0.00  0.00    +0.000 OA
ATOM     10  C12 UNL     1      59.929  54.111  69.313  0.00  0.00    +0.000 C 
ATOM     11  C19 UNL     1      58.906  57.071  69.287  0.00  0.00    +0.000 C 
ATOM     12  O4  UNL     1      57.928  56.603  68.647  0.00  0.00    +0.000 OA
ATOM     13  C20 UNL     1      59.239  58.486  69.362  0.00  0.00    +0.000 A 
ATOM     14  C21 UNL     1      58.585  59.583  68.798  0.00  0.00    +0.000 A 
ATOM     15  C22 UNL     1      59.124  60.862  69.015  0.00  0.00    +0.000 A 
ATOM     16  C23 UNL     1      60.297  61.019  69.782  0.00  0.00    +0.000 A 
ATOM     17  C24 UNL     1      60.938  59.898  70.337  0.00  0.00    +0.000 A 
ATOM     18  C25 UNL     1      60.378  58.640  70.112  0.00  0.00    +0.000 A 
ATOM     19  C26 UNL     1      60.840  57.330  70.549  0.00  0.00    +0.000 C 
ATOM     20  O5  UNL     1      61.926  57.127  71.154  0.00  0.00    +0.000 OA
ENDROOT
BRANCH   7  21
ATOM     21  C5  UNL     1      61.299  53.684  73.860  0.00  0.00    +0.000 A 
ATOM     22  C6  UNL     1      62.670  53.499  73.611  0.00  0.00    +0.000 A 
ATOM     23  C7  UNL     1      63.534  53.133  74.648  0.00  0.00    +0.000 A 
ATOM     24  C8  UNL     1      63.037  52.949  75.942  0.00  0.00    +0.000 A 
ATOM     25  I1  UNL     1      64.343  52.398  77.504  0.00  0.00    +0.000 I 
ATOM     26  C9  UNL     1      61.676  53.130  76.198  0.00  0.00    +0.000 A 
ATOM     27  C10 UNL     1      60.810  53.496  75.163  0.00  0.00    +0.000 A 
ENDBRANCH   7  21
BRANCH  10  28
ATOM     28  C13 UNL     1      60.909  52.988  69.038  0.00  0.00    +0.000 A 
ATOM     29  C14 UNL     1      60.485  51.797  68.416  0.00  0.00    +0.000 A 
ATOM     30  C15 UNL     1      61.407  50.790  68.119  0.00  0.00    +0.000 A 
ATOM     31  C16 UNL     1      62.759  50.962  68.432  0.00  0.00    +0.000 A 
ATOM     32  C17 UNL     1      63.190  52.145  69.037  0.00  0.00    +0.000 A 
ATOM     33  C18 UNL     1      62.273  53.157  69.334  0.00  0.00    +0.000 A 
ENDBRANCH  10  28
TORSDOF 2
ENDMDL
MODEL 6
REMARK VINA RESULT:    -7.016      2.850      6.269
REMARK INTER + INTRA:          -8.810
REMARK INTER:                  -7.877
REMARK INTRA:                  -0.933
REMARK UNBOUND:                -0.973
REMARK  Name = CNP0105209_1.pdb
REMARK  2 active torsions:
REMARK  status: ('A' for Active; 'I' for Inactive)
REMARK    1  A    between atoms: N1_7  and  C5_8
REMARK    2  A    between atoms: C12_17  and  C13_18
REMARK                            x       y       z     vdW  Elec       q    Type
REMARK                         _______ _______ _______ _____ _____    ______ ____
ROOT
ATOM      1  O1  UNL     1      61.086  55.191  73.111  0.00  0.00    +0.000 OA
ATOM      2  C1  UNL     1      60.471  54.574  72.201  0.00  0.00    +0.000 C 
ATOM      3  C2  UNL     1      61.087  54.204  70.881  0.00  0.00    +0.000 C 
ATOM      4  C3  UNL     1      60.025  53.339  70.205  0.00  0.00    +0.000 C 
ATOM      5  C4  UNL     1      58.897  53.309  71.198  0.00  0.00    +0.000 C 
ATOM      6  O2  UNL     1      57.837  52.644  71.033  0.00  0.00    +0.000 OA
ATOM      7  N1  UNL     1      59.158  54.071  72.364  0.00  0.00    +0.000 N 
ATOM      8  C11 UNL     1      59.726  54.091  68.890  0.00  0.00    +0.000 C 
ATOM      9  O3  UNL     1      60.238  55.400  68.973  0.00  0.00    +0.000 OA
ATOM     10  C12 UNL     1      61.299  55.375  69.900  0.00  0.00    +0.000 C 
ATOM     11  C19 UNL     1      60.323  53.372  67.699  0.00  0.00    +0.000 C 
ATOM     12  O4  UNL     1      61.549  53.126  67.546  0.00  0.00    +0.000 OA
ATOM     13  C20 UNL     1      59.286  53.003  66.747  0.00  0.00    +0.000 A 
ATOM     14  C21 UNL     1      59.396  52.320  65.534  0.00  0.00    +0.000 A 
ATOM     15  C22 UNL     1      58.226  52.098  64.789  0.00  0.00    +0.000 A 
ATOM     16  C23 UNL     1      56.981  52.560  65.262  0.00  0.00    +0.000 A 
ATOM     17  C24 UNL     1      56.898  53.248  66.485  0.00  0.00    +0.000 A 
ATOM     18  C25 UNL     1      58.073  53.450  67.209  0.00  0.00    +0.000 A 
ATOM     19  C26 UNL     1      58.272  54.136  68.478  0.00  0.00    +0.000 C 
ATOM     20  O5  UNL     1      57.368  54.760  69.095  0.00  0.00    +0.000 OA
ENDROOT
BRANCH   7  21
ATOM     21  C5  UNL     1      58.234  54.391  73.418  0.00  0.00    +0.000 A 
ATOM     22  C6  UNL     1      58.201  53.617  74.591  0.00  0.00    +0.000 A 
ATOM     23  C7  UNL     1      57.305  53.929  75.619  0.00  0.00    +0.000 A 
ATOM     24  C8  UNL     1      56.436  55.016  75.484  0.00  0.00    +0.000 A 
ATOM     25  I1  UNL     1      55.087  55.486  77.036  0.00  0.00    +0.000 I 
ATOM     26  C9  UNL     1      56.462  55.790  74.321  0.00  0.00    +0.000 A 
ATOM     27  C10 UNL     1      57.356  55.480  73.292  0.00  0.00    +0.000 A 
ENDBRANCH   7  21
BRANCH  10  28
ATOM     28  C13 UNL     1      61.444  56.728  70.567  0.00  0.00    +0.000 A 
ATOM     29  C14 UNL     1      62.667  57.121  71.144  0.00  0.00    +0.000 A 
ATOM     30  C15 UNL     1      62.805  58.392  71.709  0.00  0.00    +0.000 A 
ATOM     31  C16 UNL     1      61.729  59.284  71.699  0.00  0.00    +0.000 A 
ATOM     32  C17 UNL     1      60.515  58.908  71.118  0.00  0.00    +0.000 A 
ATOM     33  C18 UNL     1      60.373  57.639  70.548  0.00  0.00    +0.000 A 
ENDBRANCH  10  28
TORSDOF 2
ENDMDL
MODEL 7
REMARK VINA RESULT:    -6.978      3.840      6.207
REMARK INTER + INTRA:          -8.767
REMARK INTER:                  -7.981
REMARK INTRA:                  -0.787
REMARK UNBOUND:                -0.973
REMARK  Name = CNP0105209_1.pdb
REMARK  2 active torsions:
REMARK  status: ('A' for Active; 'I' for Inactive)
REMARK    1  A    between atoms: N1_7  and  C5_8
REMARK    2  A    between atoms: C12_17  and  C13_18
REMARK                            x       y       z     vdW  Elec       q    Type
REMARK                         _______ _______ _______ _____ _____    ______ ____
ROOT
ATOM      1  O1  UNL     1      60.512  51.419  73.252  0.00  0.00    +0.000 OA
ATOM      2  C1  UNL     1      60.202  52.596  72.927  0.00  0.00    +0.000 C 
ATOM      3  C2  UNL     1      60.013  53.046  71.506  0.00  0.00    +0.000 C 
ATOM      4  C3  UNL     1      59.490  54.475  71.635  0.00  0.00    +0.000 C 
ATOM      5  C4  UNL     1      59.443  54.710  73.120  0.00  0.00    +0.000 C 
ATOM      6  O2  UNL     1      59.009  55.771  73.646  0.00  0.00    +0.000 OA
ATOM      7  N1  UNL     1      59.899  53.602  73.876  0.00  0.00    +0.000 N 
ATOM      8  C11 UNL     1      60.532  55.315  70.867  0.00  0.00    +0.000 C 
ATOM      9  O3  UNL     1      61.695  54.548  70.665  0.00  0.00    +0.000 OA
ATOM     10  C12 UNL     1      61.308  53.192  70.682  0.00  0.00    +0.000 C 
ATOM     11  C19 UNL     1      59.983  55.790  69.538  0.00  0.00    +0.000 C 
ATOM     12  O4  UNL     1      59.575  55.034  68.616  0.00  0.00    +0.000 OA
ATOM     13  C20 UNL     1      59.991  57.243  69.467  0.00  0.00    +0.000 A 
ATOM     14  C21 UNL     1      59.560  58.084  68.439  0.00  0.00    +0.000 A 
ATOM     15  C22 UNL     1      59.689  59.472  68.618  0.00  0.00    +0.000 A 
ATOM     16  C23 UNL     1      60.243  59.988  69.807  0.00  0.00    +0.000 A 
ATOM     17  C24 UNL     1      60.671  59.119  70.826  0.00  0.00    +0.000 A 
ATOM     18  C25 UNL     1      60.526  57.746  70.626  0.00  0.00    +0.000 A 
ATOM     19  C26 UNL     1      60.898  56.640  71.497  0.00  0.00    +0.000 C 
ATOM     20  O5  UNL     1      61.523  56.773  72.583  0.00  0.00    +0.000 OA
ENDROOT
BRANCH   7  21
ATOM     21  C5  UNL     1      60.145  53.557  75.292  0.00  0.00    +0.000 A 
ATOM     22  C6  UNL     1      61.455  53.409  75.780  0.00  0.00    +0.000 A 
ATOM     23  C7  UNL     1      61.696  53.370  77.157  0.00  0.00    +0.000 A 
ATOM     24  C8  UNL     1      60.632  53.479  78.057  0.00  0.00    +0.000 A 
ATOM     25  I1  UNL     1      60.998  53.420  80.134  0.00  0.00    +0.000 I 
ATOM     26  C9  UNL     1      59.327  53.625  77.580  0.00  0.00    +0.000 A 
ATOM     27  C10 UNL     1      59.083  53.665  76.205  0.00  0.00    +0.000 A 
ENDBRANCH   7  21
BRANCH  10  28
ATOM     28  C13 UNL     1      62.455  52.327  71.163  0.00  0.00    +0.000 A 
ATOM     29  C14 UNL     1      62.711  51.074  70.573  0.00  0.00    +0.000 A 
ATOM     30  C15 UNL     1      63.803  50.307  70.988  0.00  0.00    +0.000 A 
ATOM     31  C16 UNL     1      64.653  50.784  71.991  0.00  0.00    +0.000 A 
ATOM     32  C17 UNL     1      64.414  52.031  72.574  0.00  0.00    +0.000 A 
ATOM     33  C18 UNL     1      63.325  52.803  72.160  0.00  0.00    +0.000 A 
ENDBRANCH  10  28
TORSDOF 2
ENDMDL
MODEL 8
REMARK VINA RESULT:    -6.860      2.954      5.538
REMARK INTER + INTRA:          -8.635
REMARK INTER:                  -7.636
REMARK INTRA:                  -0.999
REMARK UNBOUND:                -0.973
REMARK  Name = CNP0105209_1.pdb
REMARK  2 active torsions:
REMARK  status: ('A' for Active; 'I' for Inactive)
REMARK    1  A    between atoms: N1_7  and  C5_8
REMARK    2  A    between atoms: C12_17  and  C13_18
REMARK                            x       y       z     vdW  Elec       q    Type
REMARK                         _______ _______ _______ _____ _____    ______ ____
ROOT
ATOM      1  O1  UNL     1      57.853  51.892  72.921  0.00  0.00    +0.000 OA
ATOM      2  C1  UNL     1      58.264  52.834  72.192  0.00  0.00    +0.000 C 
ATOM      3  C2  UNL     1      59.095  53.979  72.700  0.00  0.00    +0.000 C 
ATOM      4  C3  UNL     1      59.477  54.749  71.437  0.00  0.00    +0.000 C 
ATOM      5  C4  UNL     1      58.816  53.977  70.329  0.00  0.00    +0.000 C 
ATOM      6  O2  UNL     1      58.938  54.265  69.107  0.00  0.00    +0.000 OA
ATOM      7  N1  UNL     1      58.072  52.862  70.790  0.00  0.00    +0.000 N 
ATOM      8  C11 UNL     1      58.909  56.162  71.686  0.00  0.00    +0.000 C 
ATOM      9  O3  UNL     1      57.988  56.115  72.750  0.00  0.00    +0.000 OA
ATOM     10  C12 UNL     1      58.338  55.014  73.557  0.00  0.00    +0.000 C 
ATOM     11  C19 UNL     1      60.013  57.151  71.995  0.00  0.00    +0.000 C 
ATOM     12  O4  UNL     1      60.816  57.055  72.961  0.00  0.00    +0.000 OA
ATOM     13  C20 UNL     1      60.021  58.234  71.023  0.00  0.00    +0.000 A 
ATOM     14  C21 UNL     1      60.874  59.335  70.928  0.00  0.00    +0.000 A 
ATOM     15  C22 UNL     1      60.659  60.254  69.888  0.00  0.00    +0.000 A 
ATOM     16  C23 UNL     1      59.604  60.060  68.973  0.00  0.00    +0.000 A 
ATOM     17  C24 UNL     1      58.757  58.944  69.092  0.00  0.00    +0.000 A 
ATOM     18  C25 UNL     1      58.996  58.043  70.130  0.00  0.00    +0.000 A 
ATOM     19  C26 UNL     1      58.272  56.832  70.489  0.00  0.00    +0.000 C 
ATOM     20  O5  UNL     1      57.208  56.451  69.933  0.00  0.00    +0.000 OA
ENDROOT
BRANCH   7  21
ATOM     21  C5  UNL     1      57.189  52.028  70.021  0.00  0.00    +0.000 A 
ATOM     22  C6  UNL     1      55.838  52.382  69.862  0.00  0.00    +0.000 A 
ATOM     23  C7  UNL     1      54.979  51.574  69.111  0.00  0.00    +0.000 A 
ATOM     24  C8  UNL     1      55.462  50.406  68.512  0.00  0.00    +0.000 A 
ATOM     25  I1  UNL     1      54.164  49.189  67.379  0.00  0.00    +0.000 I 
ATOM     26  C9  UNL     1      56.803  50.046  68.666  0.00  0.00    +0.000 A 
ATOM     27  C10 UNL     1      57.664  50.853  69.416  0.00  0.00    +0.000 A 
ENDBRANCH   7  21
BRANCH  10  28
ATOM     28  C13 UNL     1      57.111  54.466  74.257  0.00  0.00    +0.000 A 
ATOM     29  C14 UNL     1      57.216  53.843  75.516  0.00  0.00    +0.000 A 
ATOM     30  C15 UNL     1      56.071  53.389  76.177  0.00  0.00    +0.000 A 
ATOM     31  C16 UNL     1      54.812  53.557  75.593  0.00  0.00    +0.000 A 
ATOM     32  C17 UNL     1      54.697  54.185  74.350  0.00  0.00    +0.000 A 
ATOM     33  C18 UNL     1      55.838  54.644  73.686  0.00  0.00    +0.000 A 
ENDBRANCH  10  28
TORSDOF 2
ENDMDL
MODEL 9
REMARK VINA RESULT:    -6.826      3.465      5.651
REMARK INTER + INTRA:          -8.598
REMARK INTER:                  -7.724
REMARK INTRA:                  -0.874
REMARK UNBOUND:                -0.973
REMARK  Name = CNP0105209_1.pdb
REMARK  2 active torsions:
REMARK  status: ('A' for Active; 'I' for Inactive)
REMARK    1  A    between atoms: N1_7  and  C5_8
REMARK    2  A    between atoms: C12_17  and  C13_18
REMARK                            x       y       z     vdW  Elec       q    Type
REMARK                         _______ _______ _______ _____ _____    ______ ____
ROOT
ATOM      1  O1  UNL     1      59.360  55.561  71.163  0.00  0.00    +0.000 OA
ATOM      2  C1  UNL     1      59.975  54.592  71.682  0.00  0.00    +0.000 C 
ATOM      3  C2  UNL     1      60.301  54.497  73.146  0.00  0.00    +0.000 C 
ATOM      4  C3  UNL     1      60.884  53.095  73.307  0.00  0.00    +0.000 C 
ATOM      5  C4  UNL     1      60.849  52.527  71.915  0.00  0.00    +0.000 C 
ATOM      6  O2  UNL     1      61.203  51.350  71.631  0.00  0.00    +0.000 OA
ATOM      7  N1  UNL     1      60.340  53.434  70.953  0.00  0.00    +0.000 N 
ATOM      8  C11 UNL     1      62.295  53.351  73.879  0.00  0.00    +0.000 C 
ATOM      9  O3  UNL     1      62.633  54.707  73.702  0.00  0.00    +0.000 OA
ATOM     10  C12 UNL     1      61.426  55.432  73.633  0.00  0.00    +0.000 C 
ATOM     11  C19 UNL     1      62.367  52.984  75.346  0.00  0.00    +0.000 C 
ATOM     12  O4  UNL     1      61.657  53.495  76.252  0.00  0.00    +0.000 OA
ATOM     13  C20 UNL     1      63.373  51.956  75.571  0.00  0.00    +0.000 A 
ATOM     14  C21 UNL     1      63.747  51.326  76.759  0.00  0.00    +0.000 A 
ATOM     15  C22 UNL     1      64.768  50.362  76.706  0.00  0.00    +0.000 A 
ATOM     16  C23 UNL     1      65.392  50.052  75.480  0.00  0.00    +0.000 A 
ATOM     17  C24 UNL     1      64.997  50.703  74.298  0.00  0.00    +0.000 A 
ATOM     18  C25 UNL     1      63.977  51.651  74.377  0.00  0.00    +0.000 A 
ATOM     19  C26 UNL     1      63.395  52.474  73.326  0.00  0.00    +0.000 C 
ATOM     20  O5  UNL     1      63.819  52.512  72.140  0.00  0.00    +0.000 OA
ENDROOT
BRANCH   7  21
ATOM     21  C5  UNL     1      60.333  53.273  69.524  0.00  0.00    +0.000 A 
ATOM     22  C6  UNL     1      59.238  52.666  68.884  0.00  0.00    +0.000 A 
ATOM     23  C7  UNL     1      59.228  52.512  67.494  0.00  0.00    +0.000 A 
ATOM     24  C8  UNL     1      60.310  52.963  66.732  0.00  0.00    +0.000 A 
ATOM     25  I1  UNL     1      60.293  52.731  64.636  0.00  0.00    +0.000 I 
ATOM     26  C9  UNL     1      61.402  53.567  67.361  0.00  0.00    +0.000 A 
ATOM     27  C10 UNL     1      61.415  53.723  68.750  0.00  0.00    +0.000 A 
ENDBRANCH   7  21
BRANCH  10  28
ATOM     28  C13 UNL     1      61.611  56.677  72.791  0.00  0.00    +0.000 A 
ATOM     29  C14 UNL     1      60.718  57.762  72.901  0.00  0.00    +0.000 A 
ATOM     30  C15 UNL     1      60.929  58.927  72.158  0.00  0.00    +0.000 A 
ATOM     31  C16 UNL     1      62.032  59.025  71.305  0.00  0.00    +0.000 A 
ATOM     32  C17 UNL     1      62.930  57.960  71.199  0.00  0.00    +0.000 A 
ATOM     33  C18 UNL     1      62.726  56.793  71.942  0.00  0.00    +0.000 A 
ENDBRANCH  10  28
TORSDOF 2
ENDMDL
