MODEL 1
REMARK VINA RESULT:    -7.456      0.000      0.000
REMARK INTER + INTRA:         -11.491
REMARK INTER:                 -10.507
REMARK INTRA:                  -0.984
REMARK UNBOUND:                -0.984
REMARK  Name = CNP0012493_1.pdb
REMARK  9 active torsions:
REMARK  status: ('A' for Active; 'I' for Inactive)
REMARK    1  A    between atoms: C1_1  and  O1_2
REMARK    2  A    between atoms: O1_2  and  C2_3
REMARK    3  A    between atoms: C7_8  and  C8_9
REMARK    4  A    between atoms: N2_11  and  C9_12
REMARK    5  A    between atoms: C10_13  and  C11_14
REMARK    6  A    between atoms: C17_21  and  C18_22
REMARK    7  A    between atoms: C18_22  and  N4_23
REMARK    8  A    between atoms: N5_26  and  C20_27
REMARK    9  A    between atoms: C20_27  and  C21_28
REMARK                            x       y       z     vdW  Elec       q    Type
REMARK                         _______ _______ _______ _____ _____    ______ ____
ROOT
ATOM      1  C11 UNL     1      30.140  37.513  42.057  0.00  0.00    +0.000 C 
ATOM      2  C12 UNL     1      31.587  37.407  41.491  0.00  0.00    +0.000 C 
ATOM      3  N3  UNL     1      32.086  38.745  41.054  0.00  0.00    +0.000 NA
ATOM      4  C13 UNL     1      31.905  39.710  42.173  0.00  0.00    +0.000 C 
ATOM      5  C14 UNL     1      30.395  39.958  42.449  0.00  0.00    +0.000 C 
ATOM      6  C15 UNL     1      29.565  38.902  41.679  0.00  0.00    +0.000 C 
ATOM      7  C16 UNL     1      29.776  39.142  40.168  0.00  0.00    +0.000 C 
ATOM      8  C17 UNL     1      31.306  39.252  39.888  0.00  0.00    +0.000 C 
ENDROOT
BRANCH   1  13
ATOM      9  C8  UNL     1      27.230  35.393  41.370  0.00  0.00    +0.000 A 
ATOM     10  N1  UNL     1      28.176  34.443  41.480  0.00  0.00    +0.000 NA
ATOM     11  N2  UNL     1      29.333  35.030  41.749  0.00  0.00    +0.000 N 
ATOM     12  C9  UNL     1      30.538  34.237  41.953  0.00  0.00    +0.000 C 
ATOM     13  C10 UNL     1      29.144  36.375  41.837  0.00  0.00    +0.000 A 
ATOM     14  C27 UNL     1      27.807  36.630  41.584  0.00  0.00    +0.000 A 
BRANCH   9  20
ATOM     15  C2  UNL     1      25.318  35.238  39.719  0.00  0.00    +0.000 A 
ATOM     16  C3  UNL     1      23.955  34.990  39.457  0.00  0.00    +0.000 A 
ATOM     17  C4  UNL     1      23.090  34.624  40.488  0.00  0.00    +0.000 A 
ATOM     18  C5  UNL     1      23.567  34.505  41.791  0.00  0.00    +0.000 A 
ATOM     19  C6  UNL     1      24.912  34.750  42.070  0.00  0.00    +0.000 A 
ATOM     20  C7  UNL     1      25.804  35.120  41.044  0.00  0.00    +0.000 A 
BRANCH  15  22
ATOM     21  C1  UNL     1      25.864  35.651  37.307  0.00  0.00    +0.000 C 
ATOM     22  O1  UNL     1      26.206  35.590  38.688  0.00  0.00    +0.000 OA
ENDBRANCH  15  22
ENDBRANCH   9  20
ENDBRANCH   1  13
BRANCH   8  23
ATOM     23  C18 UNL     1      31.770  38.608  38.563  0.00  0.00    +0.000 C 
BRANCH  23  24
ATOM     24  N4  UNL     1      32.055  39.627  37.551  0.00  0.00    +0.000 N 
ATOM     25  C19 UNL     1      31.076  40.080  36.608  0.00  0.00    +0.000 C 
ATOM     26  O2  UNL     1      29.873  39.716  36.716  0.00  0.00    +0.000 OA
ATOM     27  N5  UNL     1      31.468  40.950  35.539  0.00  0.00    +0.000 N 
ATOM     28  H24 UNL     1      33.012  40.043  37.521  0.00  0.00    +0.000 HD
ATOM     29  H25 UNL     1      32.436  41.341  35.535  0.00  0.00    +0.000 HD
BRANCH  27  30
ATOM     30  C20 UNL     1      30.600  41.227  34.398  0.00  0.00    +0.000 C 
BRANCH  30  31
ATOM     31  C21 UNL     1      31.156  40.579  33.159  0.00  0.00    +0.000 A 
ATOM     32  C22 UNL     1      31.289  39.182  33.098  0.00  0.00    +0.000 A 
ATOM     33  C23 UNL     1      31.771  38.570  31.936  0.00  0.00    +0.000 A 
ATOM     34  C24 UNL     1      32.116  39.348  30.826  0.00  0.00    +0.000 A 
ATOM     35  C25 UNL     1      31.972  40.738  30.875  0.00  0.00    +0.000 A 
ATOM     36  C26 UNL     1      31.492  41.354  32.036  0.00  0.00    +0.000 A 
ENDBRANCH  30  31
ENDBRANCH  27  30
ENDBRANCH  23  24
ENDBRANCH   8  23
TORSDOF 7
ENDMDL
MODEL 2
REMARK VINA RESULT:    -7.380      8.681     11.788
REMARK INTER + INTRA:         -11.383
REMARK INTER:                  -7.876
REMARK INTRA:                  -3.508
REMARK UNBOUND:                -0.984
REMARK  Name = CNP0012493_1.pdb
REMARK  9 active torsions:
REMARK  status: ('A' for Active; 'I' for Inactive)
REMARK    1  A    between atoms: C1_1  and  O1_2
REMARK    2  A    between atoms: O1_2  and  C2_3
REMARK    3  A    between atoms: C7_8  and  C8_9
REMARK    4  A    between atoms: N2_11  and  C9_12
REMARK    5  A    between atoms: C10_13  and  C11_14
REMARK    6  A    between atoms: C17_21  and  C18_22
REMARK    7  A    between atoms: C18_22  and  N4_23
REMARK    8  A    between atoms: N5_26  and  C20_27
REMARK    9  A    between atoms: C20_27  and  C21_28
REMARK                            x       y       z     vdW  Elec       q    Type
REMARK                         _______ _______ _______ _____ _____    ______ ____
ROOT
ATOM      1  C11 UNL     1      20.131  37.229  37.602  0.00  0.00    +0.000 C 
ATOM      2  C12 UNL     1      19.773  36.177  36.511  0.00  0.00    +0.000 C 
ATOM      3  N3  UNL     1      20.727  35.028  36.548  0.00  0.00    +0.000 NA
ATOM      4  C13 UNL     1      20.793  34.509  37.941  0.00  0.00    +0.000 C 
ATOM      5  C14 UNL     1      21.446  35.554  38.890  0.00  0.00    +0.000 C 
ATOM      6  C15 UNL     1      21.545  36.910  38.149  0.00  0.00    +0.000 C 
ATOM      7  C16 UNL     1      22.517  36.733  36.962  0.00  0.00    +0.000 C 
ATOM      8  C17 UNL     1      22.100  35.462  36.160  0.00  0.00    +0.000 C 
ENDROOT
BRANCH   1  13
ATOM      9  C8  UNL     1      19.408  40.541  36.207  0.00  0.00    +0.000 A 
ATOM     10  N1  UNL     1      19.601  40.879  37.495  0.00  0.00    +0.000 NA
ATOM     11  N2  UNL     1      19.895  39.784  38.179  0.00  0.00    +0.000 N 
ATOM     12  C9  UNL     1      20.184  39.855  39.605  0.00  0.00    +0.000 C 
ATOM     13  C10 UNL     1      19.917  38.718  37.332  0.00  0.00    +0.000 A 
ATOM     14  C27 UNL     1      19.594  39.180  36.067  0.00  0.00    +0.000 A 
BRANCH   9  20
ATOM     15  C2  UNL     1      19.951  41.867  34.121  0.00  0.00    +0.000 A 
ATOM     16  C3  UNL     1      19.563  42.798  33.136  0.00  0.00    +0.000 A 
ATOM     17  C4  UNL     1      18.283  43.354  33.153  0.00  0.00    +0.000 A 
ATOM     18  C5  UNL     1      17.379  42.996  34.149  0.00  0.00    +0.000 A 
ATOM     19  C6  UNL     1      17.747  42.079  35.133  0.00  0.00    +0.000 A 
ATOM     20  C7  UNL     1      19.033  41.504  35.136  0.00  0.00    +0.000 A 
BRANCH  15  22
ATOM     21  C1  UNL     1      22.231  41.543  33.128  0.00  0.00    +0.000 C 
ATOM     22  O1  UNL     1      21.231  41.284  34.108  0.00  0.00    +0.000 OA
ENDBRANCH  15  22
ENDBRANCH   9  20
ENDBRANCH   1  13
BRANCH   8  23
ATOM     23  C18 UNL     1      22.254  35.583  34.628  0.00  0.00    +0.000 C 
BRANCH  23  24
ATOM     24  N4  UNL     1      21.866  36.915  34.161  0.00  0.00    +0.000 N 
ATOM     25  C19 UNL     1      20.861  37.126  33.162  0.00  0.00    +0.000 C 
ATOM     26  O2  UNL     1      20.162  36.160  32.751  0.00  0.00    +0.000 OA
ATOM     27  N5  UNL     1      20.653  38.439  32.629  0.00  0.00    +0.000 N 
ATOM     28  H24 UNL     1      22.341  37.746  34.580  0.00  0.00    +0.000 HD
ATOM     29  H25 UNL     1      21.151  39.246  33.066  0.00  0.00    +0.000 HD
BRANCH  27  30
ATOM     30  C20 UNL     1      19.854  38.678  31.431  0.00  0.00    +0.000 C 
BRANCH  30  31
ATOM     31  C21 UNL     1      18.498  39.207  31.815  0.00  0.00    +0.000 A 
ATOM     32  C22 UNL     1      17.873  40.181  31.019  0.00  0.00    +0.000 A 
ATOM     33  C23 UNL     1      16.598  40.650  31.350  0.00  0.00    +0.000 A 
ATOM     34  C24 UNL     1      15.934  40.143  32.471  0.00  0.00    +0.000 A 
ATOM     35  C25 UNL     1      16.543  39.162  33.260  0.00  0.00    +0.000 A 
ATOM     36  C26 UNL     1      17.820  38.692  32.933  0.00  0.00    +0.000 A 
ENDBRANCH  30  31
ENDBRANCH  27  30
ENDBRANCH  23  24
ENDBRANCH   8  23
TORSDOF 7
ENDMDL
MODEL 3
REMARK VINA RESULT:    -7.378      7.239     10.100
REMARK INTER + INTRA:         -11.381
REMARK INTER:                 -10.163
REMARK INTRA:                  -1.218
REMARK UNBOUND:                -0.984
REMARK  Name = CNP0012493_1.pdb
REMARK  9 active torsions:
REMARK  status: ('A' for Active; 'I' for Inactive)
REMARK    1  A    between atoms: C1_1  and  O1_2
REMARK    2  A    between atoms: O1_2  and  C2_3
REMARK    3  A    between atoms: C7_8  and  C8_9
REMARK    4  A    between atoms: N2_11  and  C9_12
REMARK    5  A    between atoms: C10_13  and  C11_14
REMARK    6  A    between atoms: C17_21  and  C18_22
REMARK    7  A    between atoms: C18_22  and  N4_23
REMARK    8  A    between atoms: N5_26  and  C20_27
REMARK    9  A    between atoms: C20_27  and  C21_28
REMARK                            x       y       z     vdW  Elec       q    Type
REMARK                         _______ _______ _______ _____ _____    ______ ____
ROOT
ATOM      1  C11 UNL     1      23.062  32.541  40.235  0.00  0.00    +0.000 C 
ATOM      2  C12 UNL     1      24.273  32.796  39.289  0.00  0.00    +0.000 C 
ATOM      3  N3  UNL     1      24.760  34.203  39.418  0.00  0.00    +0.000 NA
ATOM      4  C13 UNL     1      24.999  34.494  40.858  0.00  0.00    +0.000 C 
ATOM      5  C14 UNL     1      23.660  34.500  41.650  0.00  0.00    +0.000 C 
ATOM      6  C15 UNL     1      22.546  33.907  40.753  0.00  0.00    +0.000 C 
ATOM      7  C16 UNL     1      22.346  34.860  39.553  0.00  0.00    +0.000 C 
ATOM      8  C17 UNL     1      23.738  35.169  38.924  0.00  0.00    +0.000 C 
ENDROOT
BRANCH   1  13
ATOM      9  C8  UNL     1      20.009  30.980  38.938  0.00  0.00    +0.000 A 
ATOM     10  N1  UNL     1      20.715  29.874  39.238  0.00  0.00    +0.000 NA
ATOM     11  N2  UNL     1      21.881  30.243  39.747  0.00  0.00    +0.000 N 
ATOM     12  C9  UNL     1      22.845  29.246  40.192  0.00  0.00    +0.000 C 
ATOM     13  C10 UNL     1      21.936  31.602  39.804  0.00  0.00    +0.000 A 
ATOM     14  C27 UNL     1      20.753  32.094  39.277  0.00  0.00    +0.000 A 
BRANCH   9  20
ATOM     15  C2  UNL     1      18.485  31.151  36.926  0.00  0.00    +0.000 A 
ATOM     16  C3  UNL     1      17.184  31.153  36.383  0.00  0.00    +0.000 A 
ATOM     17  C4  UNL     1      16.072  30.968  37.205  0.00  0.00    +0.000 A 
ATOM     18  C5  UNL     1      16.239  30.784  38.575  0.00  0.00    +0.000 A 
ATOM     19  C6  UNL     1      17.519  30.783  39.131  0.00  0.00    +0.000 A 
ATOM     20  C7  UNL     1      18.656  30.967  38.320  0.00  0.00    +0.000 A 
BRANCH  15  22
ATOM     21  C1  UNL     1      20.005  32.547  35.503  0.00  0.00    +0.000 C 
ATOM     22  O1  UNL     1      19.616  31.319  36.109  0.00  0.00    +0.000 OA
ENDBRANCH  15  22
ENDBRANCH   9  20
ENDBRANCH   1  13
BRANCH   8  23
ATOM     23  C18 UNL     1      23.743  35.273  37.382  0.00  0.00    +0.000 C 
BRANCH  23  24
ATOM     24  N4  UNL     1      22.383  35.401  36.856  0.00  0.00    +0.000 N 
ATOM     25  C19 UNL     1      21.785  36.666  36.549  0.00  0.00    +0.000 C 
ATOM     26  O2  UNL     1      22.475  37.721  36.585  0.00  0.00    +0.000 OA
ATOM     27  N5  UNL     1      20.396  36.730  36.203  0.00  0.00    +0.000 N 
ATOM     28  H24 UNL     1      21.829  34.530  36.694  0.00  0.00    +0.000 HD
ATOM     29  H25 UNL     1      19.870  35.840  36.057  0.00  0.00    +0.000 HD
BRANCH  27  30
ATOM     30  C20 UNL     1      19.661  37.990  36.149  0.00  0.00    +0.000 C 
BRANCH  30  31
ATOM     31  C21 UNL     1      19.659  38.642  37.505  0.00  0.00    +0.000 A 
ATOM     32  C22 UNL     1      19.882  40.024  37.620  0.00  0.00    +0.000 A 
ATOM     33  C23 UNL     1      19.845  40.643  38.874  0.00  0.00    +0.000 A 
ATOM     34  C24 UNL     1      19.576  39.888  40.019  0.00  0.00    +0.000 A 
ATOM     35  C25 UNL     1      19.337  38.514  39.912  0.00  0.00    +0.000 A 
ATOM     36  C26 UNL     1      19.376  37.891  38.659  0.00  0.00    +0.000 A 
ENDBRANCH  30  31
ENDBRANCH  27  30
ENDBRANCH  23  24
ENDBRANCH   8  23
TORSDOF 7
ENDMDL
MODEL 4
REMARK VINA RESULT:    -7.355      7.543     11.219
REMARK INTER + INTRA:         -11.349
REMARK INTER:                  -8.701
REMARK INTRA:                  -2.648
REMARK UNBOUND:                -0.984
REMARK  Name = CNP0012493_1.pdb
REMARK  9 active torsions:
REMARK  status: ('A' for Active; 'I' for Inactive)
REMARK    1  A    between atoms: C1_1  and  O1_2
REMARK    2  A    between atoms: O1_2  and  C2_3
REMARK    3  A    between atoms: C7_8  and  C8_9
REMARK    4  A    between atoms: N2_11  and  C9_12
REMARK    5  A    between atoms: C10_13  and  C11_14
REMARK    6  A    between atoms: C17_21  and  C18_22
REMARK    7  A    between atoms: C18_22  and  N4_23
REMARK    8  A    between atoms: N5_26  and  C20_27
REMARK    9  A    between atoms: C20_27  and  C21_28
REMARK                            x       y       z     vdW  Elec       q    Type
REMARK                         _______ _______ _______ _____ _____    ______ ____
ROOT
ATOM      1  C11 UNL     1      22.146  40.758  33.045  0.00  0.00    +0.000 C 
ATOM      2  C12 UNL     1      23.588  40.200  33.233  0.00  0.00    +0.000 C 
ATOM      3  N3  UNL     1      24.052  39.501  31.997  0.00  0.00    +0.000 NA
ATOM      4  C13 UNL     1      23.864  40.413  30.835  0.00  0.00    +0.000 C 
ATOM      5  C14 UNL     1      22.351  40.660  30.567  0.00  0.00    +0.000 C 
ATOM      6  C15 UNL     1      21.535  40.126  31.769  0.00  0.00    +0.000 C 
ATOM      7  C16 UNL     1      21.722  38.593  31.826  0.00  0.00    +0.000 C 
ATOM      8  C17 UNL     1      23.246  38.272  31.744  0.00  0.00    +0.000 C 
ENDROOT
BRANCH   1  13
ATOM      9  C8  UNL     1      20.289  40.216  36.160  0.00  0.00    +0.000 A 
ATOM     10  N1  UNL     1      19.653  41.312  35.708  0.00  0.00    +0.000 NA
ATOM     11  N2  UNL     1      20.189  41.664  34.549  0.00  0.00    +0.000 N 
ATOM     12  C9  UNL     1      19.673  42.809  33.810  0.00  0.00    +0.000 C 
ATOM     13  C10 UNL     1      21.173  40.782  34.224  0.00  0.00    +0.000 A 
ATOM     14  C27 UNL     1      21.263  39.855  35.248  0.00  0.00    +0.000 A 
BRANCH   9  20
ATOM     15  C2  UNL     1      19.559  38.192  37.490  0.00  0.00    +0.000 A 
ATOM     16  C3  UNL     1      19.259  37.596  38.732  0.00  0.00    +0.000 A 
ATOM     17  C4  UNL     1      19.385  38.324  39.915  0.00  0.00    +0.000 A 
ATOM     18  C5  UNL     1      19.804  39.651  39.878  0.00  0.00    +0.000 A 
ATOM     19  C6  UNL     1      20.102  40.258  38.658  0.00  0.00    +0.000 A 
ATOM     20  C7  UNL     1      19.983  39.542  37.450  0.00  0.00    +0.000 A 
BRANCH  15  22
ATOM     21  C1  UNL     1      18.247  37.276  35.559  0.00  0.00    +0.000 C 
ATOM     22  O1  UNL     1      19.454  37.466  36.290  0.00  0.00    +0.000 OA
ENDBRANCH  15  22
ENDBRANCH   9  20
ENDBRANCH   1  13
BRANCH   8  23
ATOM     23  C18 UNL     1      23.706  37.090  32.625  0.00  0.00    +0.000 C 
BRANCH  23  24
ATOM     24  N4  UNL     1      22.832  36.924  33.787  0.00  0.00    +0.000 N 
ATOM     25  C19 UNL     1      23.326  36.881  35.131  0.00  0.00    +0.000 C 
ATOM     26  O2  UNL     1      24.537  37.138  35.371  0.00  0.00    +0.000 OA
ATOM     27  N5  UNL     1      22.438  36.544  36.204  0.00  0.00    +0.000 N 
ATOM     28  H24 UNL     1      21.803  36.837  33.626  0.00  0.00    +0.000 HD
ATOM     29  H25 UNL     1      21.416  36.457  36.006  0.00  0.00    +0.000 HD
BRANCH  27  30
ATOM     30  C20 UNL     1      22.920  36.215  37.543  0.00  0.00    +0.000 C 
BRANCH  30  31
ATOM     31  C21 UNL     1      21.933  35.316  38.237  0.00  0.00    +0.000 A 
ATOM     32  C22 UNL     1      21.014  34.567  37.483  0.00  0.00    +0.000 A 
ATOM     33  C23 UNL     1      20.119  33.701  38.120  0.00  0.00    +0.000 A 
ATOM     34  C24 UNL     1      20.140  33.572  39.512  0.00  0.00    +0.000 A 
ATOM     35  C25 UNL     1      21.062  34.302  40.268  0.00  0.00    +0.000 A 
ATOM     36  C26 UNL     1      21.958  35.171  39.635  0.00  0.00    +0.000 A 
ENDBRANCH  30  31
ENDBRANCH  27  30
ENDBRANCH  23  24
ENDBRANCH   8  23
TORSDOF 7
ENDMDL
MODEL 5
REMARK VINA RESULT:    -7.323     10.232     14.111
REMARK INTER + INTRA:         -11.303
REMARK INTER:                  -9.793
REMARK INTRA:                  -1.510
REMARK UNBOUND:                -0.984
REMARK  Name = CNP0012493_1.pdb
REMARK  9 active torsions:
REMARK  status: ('A' for Active; 'I' for Inactive)
REMARK    1  A    between atoms: C1_1  and  O1_2
REMARK    2  A    between atoms: O1_2  and  C2_3
REMARK    3  A    between atoms: C7_8  and  C8_9
REMARK    4  A    between atoms: N2_11  and  C9_12
REMARK    5  A    between atoms: C10_13  and  C11_14
REMARK    6  A    between atoms: C17_21  and  C18_22
REMARK    7  A    between atoms: C18_22  and  N4_23
REMARK    8  A    between atoms: N5_26  and  C20_27
REMARK    9  A    between atoms: C20_27  and  C21_28
REMARK                            x       y       z     vdW  Elec       q    Type
REMARK                         _______ _______ _______ _____ _____    ______ ____
ROOT
ATOM      1  C11 UNL     1      17.936  38.907  33.315  0.00  0.00    +0.000 C 
ATOM      2  C12 UNL     1      18.518  38.217  32.045  0.00  0.00    +0.000 C 
ATOM      3  N3  UNL     1      17.424  37.807  31.115  0.00  0.00    +0.000 NA
ATOM      4  C13 UNL     1      16.549  38.984  30.861  0.00  0.00    +0.000 C 
ATOM      5  C14 UNL     1      15.790  39.398  32.154  0.00  0.00    +0.000 C 
ATOM      6  C15 UNL     1      16.409  38.648  33.359  0.00  0.00    +0.000 C 
ATOM      7  C16 UNL     1      16.146  37.139  33.165  0.00  0.00    +0.000 C 
ATOM      8  C17 UNL     1      16.580  36.737  31.722  0.00  0.00    +0.000 C 
ENDROOT
BRANCH   1  13
ATOM      9  C8  UNL     1      19.451  37.651  36.408  0.00  0.00    +0.000 A 
ATOM     10  N1  UNL     1      19.750  38.958  36.528  0.00  0.00    +0.000 NA
ATOM     11  N2  UNL     1      19.259  39.601  35.479  0.00  0.00    +0.000 N 
ATOM     12  C9  UNL     1      19.409  41.044  35.356  0.00  0.00    +0.000 C 
ATOM     13  C10 UNL     1      18.614  38.715  34.671  0.00  0.00    +0.000 A 
ATOM     14  C27 UNL     1      18.736  37.459  35.242  0.00  0.00    +0.000 A 
BRANCH   9  20
ATOM     15  C2  UNL     1      19.645  36.776  38.774  0.00  0.00    +0.000 A 
ATOM     16  C3  UNL     1      20.067  35.770  39.668  0.00  0.00    +0.000 A 
ATOM     17  C4  UNL     1      20.685  34.613  39.192  0.00  0.00    +0.000 A 
ATOM     18  C5  UNL     1      20.894  34.444  37.826  0.00  0.00    +0.000 A 
ATOM     19  C6  UNL     1      20.487  35.430  36.927  0.00  0.00    +0.000 A 
ATOM     20  C7  UNL     1      19.860  36.606  37.385  0.00  0.00    +0.000 A 
BRANCH  15  22
ATOM     21  C1  UNL     1      19.627  38.948  40.027  0.00  0.00    +0.000 C 
ATOM     22  O1  UNL     1      19.006  37.939  39.236  0.00  0.00    +0.000 OA
ENDBRANCH  15  22
ENDBRANCH   9  20
ENDBRANCH   1  13
BRANCH   8  23
ATOM     23  C18 UNL     1      17.243  35.347  31.608  0.00  0.00    +0.000 C 
BRANCH  23  24
ATOM     24  N4  UNL     1      17.667  34.854  32.919  0.00  0.00    +0.000 N 
ATOM     25  C19 UNL     1      18.009  33.484  33.160  0.00  0.00    +0.000 C 
ATOM     26  O2  UNL     1      18.098  32.673  32.199  0.00  0.00    +0.000 OA
ATOM     27  N5  UNL     1      18.248  33.036  34.500  0.00  0.00    +0.000 N 
ATOM     28  H24 UNL     1      17.727  35.534  33.710  0.00  0.00    +0.000 HD
ATOM     29  H25 UNL     1      18.292  33.742  35.269  0.00  0.00    +0.000 HD
BRANCH  27  30
ATOM     30  C20 UNL     1      18.327  31.620  34.849  0.00  0.00    +0.000 C 
BRANCH  30  31
ATOM     31  C21 UNL     1      17.815  31.406  36.247  0.00  0.00    +0.000 A 
ATOM     32  C22 UNL     1      16.474  31.042  36.456  0.00  0.00    +0.000 A 
ATOM     33  C23 UNL     1      16.001  30.806  37.750  0.00  0.00    +0.000 A 
ATOM     34  C24 UNL     1      16.864  30.921  38.844  0.00  0.00    +0.000 A 
ATOM     35  C25 UNL     1      18.205  31.267  38.643  0.00  0.00    +0.000 A 
ATOM     36  C26 UNL     1      18.681  31.507  37.350  0.00  0.00    +0.000 A 
ENDBRANCH  30  31
ENDBRANCH  27  30
ENDBRANCH  23  24
ENDBRANCH   8  23
TORSDOF 7
ENDMDL
MODEL 6
REMARK VINA RESULT:    -7.291      9.765     14.201
REMARK INTER + INTRA:         -11.259
REMARK INTER:                  -9.941
REMARK INTRA:                  -1.318
REMARK UNBOUND:                -0.984
REMARK  Name = CNP0012493_1.pdb
REMARK  9 active torsions:
REMARK  status: ('A' for Active; 'I' for Inactive)
REMARK    1  A    between atoms: C1_1  and  O1_2
REMARK    2  A    between atoms: O1_2  and  C2_3
REMARK    3  A    between atoms: C7_8  and  C8_9
REMARK    4  A    between atoms: N2_11  and  C9_12
REMARK    5  A    between atoms: C10_13  and  C11_14
REMARK    6  A    between atoms: C17_21  and  C18_22
REMARK    7  A    between atoms: C18_22  and  N4_23
REMARK    8  A    between atoms: N5_26  and  C20_27
REMARK    9  A    between atoms: C20_27  and  C21_28
REMARK                            x       y       z     vdW  Elec       q    Type
REMARK                         _______ _______ _______ _____ _____    ______ ____
ROOT
ATOM      1  C11 UNL     1      18.043  38.616  32.586  0.00  0.00    +0.000 C 
ATOM      2  C12 UNL     1      18.333  37.616  31.427  0.00  0.00    +0.000 C 
ATOM      3  N3  UNL     1      17.063  37.036  30.896  0.00  0.00    +0.000 NA
ATOM      4  C13 UNL     1      16.134  38.150  30.562  0.00  0.00    +0.000 C 
ATOM      5  C14 UNL     1      15.681  38.896  31.851  0.00  0.00    +0.000 C 
ATOM      6  C15 UNL     1      16.570  38.438  33.033  0.00  0.00    +0.000 C 
ATOM      7  C16 UNL     1      16.295  36.938  33.280  0.00  0.00    +0.000 C 
ATOM      8  C17 UNL     1      16.396  36.181  31.920  0.00  0.00    +0.000 C 
ENDROOT
BRANCH   1  13
ATOM      9  C8  UNL     1      19.684  38.945  35.847  0.00  0.00    +0.000 A 
ATOM     10  N1  UNL     1      20.760  38.692  35.080  0.00  0.00    +0.000 NA
ATOM     11  N2  UNL     1      20.361  38.552  33.825  0.00  0.00    +0.000 N 
ATOM     12  C9  UNL     1      21.325  38.298  32.763  0.00  0.00    +0.000 C 
ATOM     13  C10 UNL     1      19.013  38.733  33.760  0.00  0.00    +0.000 A 
ATOM     14  C27 UNL     1      18.559  38.972  35.046  0.00  0.00    +0.000 A 
BRANCH   9  20
ATOM     15  C2  UNL     1      19.618  38.036  38.207  0.00  0.00    +0.000 A 
ATOM     16  C3  UNL     1      19.649  38.262  39.599  0.00  0.00    +0.000 A 
ATOM     17  C4  UNL     1      19.799  39.554  40.103  0.00  0.00    +0.000 A 
ATOM     18  C5  UNL     1      19.914  40.635  39.234  0.00  0.00    +0.000 A 
ATOM     19  C6  UNL     1      19.882  40.431  37.854  0.00  0.00    +0.000 A 
ATOM     20  C7  UNL     1      19.733  39.135  37.321  0.00  0.00    +0.000 A 
BRANCH  15  22
ATOM     21  C1  UNL     1      20.322  35.637  38.021  0.00  0.00    +0.000 C 
ATOM     22  O1  UNL     1      19.486  36.739  37.683  0.00  0.00    +0.000 OA
ENDBRANCH  15  22
ENDBRANCH   9  20
ENDBRANCH   1  13
BRANCH   8  23
ATOM     23  C18 UNL     1      17.040  34.779  32.006  0.00  0.00    +0.000 C 
BRANCH  23  24
ATOM     24  N4  UNL     1      17.765  34.606  33.266  0.00  0.00    +0.000 N 
ATOM     25  C19 UNL     1      18.367  33.364  33.651  0.00  0.00    +0.000 C 
ATOM     26  O2  UNL     1      18.419  32.403  32.836  0.00  0.00    +0.000 OA
ATOM     27  N5  UNL     1      18.910  33.216  34.969  0.00  0.00    +0.000 N 
ATOM     28  H24 UNL     1      17.849  35.426  33.908  0.00  0.00    +0.000 HD
ATOM     29  H25 UNL     1      18.971  34.055  35.588  0.00  0.00    +0.000 HD
BRANCH  27  30
ATOM     30  C20 UNL     1      19.283  31.916  35.518  0.00  0.00    +0.000 C 
BRANCH  30  31
ATOM     31  C21 UNL     1      18.300  31.505  36.581  0.00  0.00    +0.000 A 
ATOM     32  C22 UNL     1      18.683  31.517  37.933  0.00  0.00    +0.000 A 
ATOM     33  C23 UNL     1      17.763  31.172  38.929  0.00  0.00    +0.000 A 
ATOM     34  C24 UNL     1      16.455  30.822  38.583  0.00  0.00    +0.000 A 
ATOM     35  C25 UNL     1      16.062  30.823  37.241  0.00  0.00    +0.000 A 
ATOM     36  C26 UNL     1      16.979  31.166  36.241  0.00  0.00    +0.000 A 
ENDBRANCH  30  31
ENDBRANCH  27  30
ENDBRANCH  23  24
ENDBRANCH   8  23
TORSDOF 7
ENDMDL
MODEL 7
REMARK VINA RESULT:    -7.216      7.047     10.098
REMARK INTER + INTRA:         -11.153
REMARK INTER:                  -7.657
REMARK INTRA:                  -3.496
REMARK UNBOUND:                -0.984
REMARK  Name = CNP0012493_1.pdb
REMARK  9 active torsions:
REMARK  status: ('A' for Active; 'I' for Inactive)
REMARK    1  A    between atoms: C1_1  and  O1_2
REMARK    2  A    between atoms: O1_2  and  C2_3
REMARK    3  A    between atoms: C7_8  and  C8_9
REMARK    4  A    between atoms: N2_11  and  C9_12
REMARK    5  A    between atoms: C10_13  and  C11_14
REMARK    6  A    between atoms: C17_21  and  C18_22
REMARK    7  A    between atoms: C18_22  and  N4_23
REMARK    8  A    between atoms: N5_26  and  C20_27
REMARK    9  A    between atoms: C20_27  and  C21_28
REMARK                            x       y       z     vdW  Elec       q    Type
REMARK                         _______ _______ _______ _____ _____    ______ ____
ROOT
ATOM      1  C11 UNL     1      19.707  39.160  37.069  0.00  0.00    +0.000 C 
ATOM      2  C12 UNL     1      20.856  40.171  36.776  0.00  0.00    +0.000 C 
ATOM      3  N3  UNL     1      20.895  40.523  35.325  0.00  0.00    +0.000 NA
ATOM      4  C13 UNL     1      19.536  40.960  34.904  0.00  0.00    +0.000 C 
ATOM      5  C14 UNL     1      18.532  39.772  34.962  0.00  0.00    +0.000 C 
ATOM      6  C15 UNL     1      19.192  38.596  35.721  0.00  0.00    +0.000 C 
ATOM      7  C16 UNL     1      20.396  38.107  34.885  0.00  0.00    +0.000 C 
ATOM      8  C17 UNL     1      21.268  39.340  34.497  0.00  0.00    +0.000 C 
ENDROOT
BRANCH   1  13
ATOM      9  C8  UNL     1      20.402  36.125  39.004  0.00  0.00    +0.000 A 
ATOM     10  N1  UNL     1      20.117  36.971  40.011  0.00  0.00    +0.000 NA
ATOM     11  N2  UNL     1      19.819  38.155  39.496  0.00  0.00    +0.000 N 
ATOM     12  C9  UNL     1      19.438  39.265  40.359  0.00  0.00    +0.000 C 
ATOM     13  C10 UNL     1      19.886  38.083  38.138  0.00  0.00    +0.000 A 
ATOM     14  C27 UNL     1      20.271  36.796  37.803  0.00  0.00    +0.000 A 
BRANCH   9  20
ATOM     15  C2  UNL     1      22.176  34.336  39.228  0.00  0.00    +0.000 A 
ATOM     16  C3  UNL     1      22.521  32.978  39.388  0.00  0.00    +0.000 A 
ATOM     17  C4  UNL     1      21.528  32.006  39.518  0.00  0.00    +0.000 A 
ATOM     18  C5  UNL     1      20.185  32.370  39.486  0.00  0.00    +0.000 A 
ATOM     19  C6  UNL     1      19.826  33.708  39.325  0.00  0.00    +0.000 A 
ATOM     20  C7  UNL     1      20.810  34.707  39.193  0.00  0.00    +0.000 A 
BRANCH  15  22
ATOM     21  C1  UNL     1      24.529  35.164  39.483  0.00  0.00    +0.000 C 
ATOM     22  O1  UNL     1      23.164  35.329  39.114  0.00  0.00    +0.000 OA
ENDBRANCH  15  22
ENDBRANCH   9  20
ENDBRANCH   1  13
BRANCH   8  23
ATOM     23  C18 UNL     1      22.791  39.086  34.511  0.00  0.00    +0.000 C 
BRANCH  23  24
ATOM     24  N4  UNL     1      23.143  38.028  35.460  0.00  0.00    +0.000 N 
ATOM     25  C19 UNL     1      23.569  36.724  35.046  0.00  0.00    +0.000 C 
ATOM     26  O2  UNL     1      23.801  36.488  33.829  0.00  0.00    +0.000 OA
ATOM     27  N5  UNL     1      23.731  35.687  36.022  0.00  0.00    +0.000 N 
ATOM     28  H24 UNL     1      23.084  38.237  36.481  0.00  0.00    +0.000 HD
ATOM     29  H25 UNL     1      23.657  35.930  37.034  0.00  0.00    +0.000 HD
BRANCH  27  30
ATOM     30  C20 UNL     1      23.891  34.284  35.651  0.00  0.00    +0.000 C 
BRANCH  30  31
ATOM     31  C21 UNL     1      22.563  33.580  35.719  0.00  0.00    +0.000 A 
ATOM     32  C22 UNL     1      21.373  34.311  35.574  0.00  0.00    +0.000 A 
ATOM     33  C23 UNL     1      20.136  33.658  35.600  0.00  0.00    +0.000 A 
ATOM     34  C24 UNL     1      20.081  32.270  35.762  0.00  0.00    +0.000 A 
ATOM     35  C25 UNL     1      21.262  31.533  35.891  0.00  0.00    +0.000 A 
ATOM     36  C26 UNL     1      22.501  32.183  35.868  0.00  0.00    +0.000 A 
ENDBRANCH  30  31
ENDBRANCH  27  30
ENDBRANCH  23  24
ENDBRANCH   8  23
TORSDOF 7
ENDMDL
MODEL 8
REMARK VINA RESULT:    -7.142      9.410     11.934
REMARK INTER + INTRA:         -11.048
REMARK INTER:                 -10.044
REMARK INTRA:                  -1.004
REMARK UNBOUND:                -0.984
REMARK  Name = CNP0012493_1.pdb
REMARK  9 active torsions:
REMARK  status: ('A' for Active; 'I' for Inactive)
REMARK    1  A    between atoms: C1_1  and  O1_2
REMARK    2  A    between atoms: O1_2  and  C2_3
REMARK    3  A    between atoms: C7_8  and  C8_9
REMARK    4  A    between atoms: N2_11  and  C9_12
REMARK    5  A    between atoms: C10_13  and  C11_14
REMARK    6  A    between atoms: C17_21  and  C18_22
REMARK    7  A    between atoms: C18_22  and  N4_23
REMARK    8  A    between atoms: N5_26  and  C20_27
REMARK    9  A    between atoms: C20_27  and  C21_28
REMARK                            x       y       z     vdW  Elec       q    Type
REMARK                         _______ _______ _______ _____ _____    ______ ____
ROOT
ATOM      1  C11 UNL     1      18.642  42.956  33.681  0.00  0.00    +0.000 C 
ATOM      2  C12 UNL     1      19.348  44.180  33.024  0.00  0.00    +0.000 C 
ATOM      3  N3  UNL     1      18.748  44.484  31.690  0.00  0.00    +0.000 NA
ATOM      4  C13 UNL     1      17.272  44.603  31.847  0.00  0.00    +0.000 C 
ATOM      5  C14 UNL     1      16.645  43.230  32.222  0.00  0.00    +0.000 C 
ATOM      6  C15 UNL     1      17.779  42.249  32.607  0.00  0.00    +0.000 C 
ATOM      7  C16 UNL     1      18.640  42.003  31.348  0.00  0.00    +0.000 C 
ATOM      8  C17 UNL     1      19.013  43.381  30.721  0.00  0.00    +0.000 C 
ENDROOT
BRANCH   1  13
ATOM      9  C8  UNL     1      19.862  40.544  36.158  0.00  0.00    +0.000 A 
ATOM     10  N1  UNL     1      20.927  40.578  35.337  0.00  0.00    +0.000 NA
ATOM     11  N2  UNL     1      20.676  41.431  34.355  0.00  0.00    +0.000 N 
ATOM     12  C9  UNL     1      21.673  41.693  33.326  0.00  0.00    +0.000 C 
ATOM     13  C10 UNL     1      19.444  41.980  34.541  0.00  0.00    +0.000 A 
ATOM     14  C27 UNL     1      18.900  41.415  35.683  0.00  0.00    +0.000 A 
BRANCH   9  20
ATOM     15  C2  UNL     1      19.503  38.291  37.251  0.00  0.00    +0.000 A 
ATOM     16  C3  UNL     1      19.395  37.509  38.419  0.00  0.00    +0.000 A 
ATOM     17  C4  UNL     1      19.547  38.091  39.678  0.00  0.00    +0.000 A 
ATOM     18  C5  UNL     1      19.804  39.454  39.790  0.00  0.00    +0.000 A 
ATOM     19  C6  UNL     1      19.911  40.244  38.645  0.00  0.00    +0.000 A 
ATOM     20  C7  UNL     1      19.761  39.678  37.364  0.00  0.00    +0.000 A 
BRANCH  15  22
ATOM     21  C1  UNL     1      19.202  36.324  35.724  0.00  0.00    +0.000 C 
ATOM     22  O1  UNL     1      19.369  37.716  35.975  0.00  0.00    +0.000 OA
ENDBRANCH  15  22
ENDBRANCH   9  20
ENDBRANCH   1  13
BRANCH   8  23
ATOM     23  C18 UNL     1      20.440  43.462  30.135  0.00  0.00    +0.000 C 
BRANCH  23  24
ATOM     24  N4  UNL     1      21.193  44.569  30.726  0.00  0.00    +0.000 N 
ATOM     25  C19 UNL     1      22.614  44.530  30.912  0.00  0.00    +0.000 C 
ATOM     26  O2  UNL     1      23.292  43.583  30.428  0.00  0.00    +0.000 OA
ATOM     27  N5  UNL     1      23.262  45.572  31.650  0.00  0.00    +0.000 N 
ATOM     28  H24 UNL     1      20.671  45.424  31.020  0.00  0.00    +0.000 HD
ATOM     29  H25 UNL     1      22.708  46.409  31.936  0.00  0.00    +0.000 HD
BRANCH  27  30
ATOM     30  C20 UNL     1      24.643  45.460  32.111  0.00  0.00    +0.000 C 
BRANCH  30  31
ATOM     31  C21 UNL     1      24.727  45.807  33.573  0.00  0.00    +0.000 A 
ATOM     32  C22 UNL     1      25.586  45.083  34.418  0.00  0.00    +0.000 A 
ATOM     33  C23 UNL     1      25.696  45.424  35.770  0.00  0.00    +0.000 A 
ATOM     34  C24 UNL     1      24.957  46.493  36.285  0.00  0.00    +0.000 A 
ATOM     35  C25 UNL     1      24.112  47.228  35.447  0.00  0.00    +0.000 A 
ATOM     36  C26 UNL     1      23.997  46.889  34.095  0.00  0.00    +0.000 A 
ENDBRANCH  30  31
ENDBRANCH  27  30
ENDBRANCH  23  24
ENDBRANCH   8  23
TORSDOF 7
ENDMDL
MODEL 9
REMARK VINA RESULT:    -7.090      9.374     13.307
REMARK INTER + INTRA:         -10.975
REMARK INTER:                  -8.917
REMARK INTRA:                  -2.057
REMARK UNBOUND:                -0.984
REMARK  Name = CNP0012493_1.pdb
REMARK  9 active torsions:
REMARK  status: ('A' for Active; 'I' for Inactive)
REMARK    1  A    between atoms: C1_1  and  O1_2
REMARK    2  A    between atoms: O1_2  and  C2_3
REMARK    3  A    between atoms: C7_8  and  C8_9
REMARK    4  A    between atoms: N2_11  and  C9_12
REMARK    5  A    between atoms: C10_13  and  C11_14
REMARK    6  A    between atoms: C17_21  and  C18_22
REMARK    7  A    between atoms: C18_22  and  N4_23
REMARK    8  A    between atoms: N5_26  and  C20_27
REMARK    9  A    between atoms: C20_27  and  C21_28
REMARK                            x       y       z     vdW  Elec       q    Type
REMARK                         _______ _______ _______ _____ _____    ______ ____
ROOT
ATOM      1  C11 UNL     1      18.760  37.826  35.939  0.00  0.00    +0.000 C 
ATOM      2  C12 UNL     1      18.684  37.518  37.464  0.00  0.00    +0.000 C 
ATOM      3  N3  UNL     1      19.783  38.210  38.201  0.00  0.00    +0.000 NA
ATOM      4  C13 UNL     1      19.765  39.653  37.838  0.00  0.00    +0.000 C 
ATOM      5  C14 UNL     1      20.149  39.851  36.343  0.00  0.00    +0.000 C 
ATOM      6  C15 UNL     1      20.134  38.474  35.636  0.00  0.00    +0.000 C 
ATOM      7  C16 UNL     1      21.250  37.608  36.260  0.00  0.00    +0.000 C 
ATOM      8  C17 UNL     1      21.115  37.662  37.813  0.00  0.00    +0.000 C 
ENDROOT
BRANCH   1  13
ATOM      9  C8  UNL     1      18.286  34.781  33.954  0.00  0.00    +0.000 A 
ATOM     10  N1  UNL     1      17.397  35.585  33.343  0.00  0.00    +0.000 NA
ATOM     11  N2  UNL     1      17.432  36.773  33.928  0.00  0.00    +0.000 N 
ATOM     12  C9  UNL     1      16.588  37.861  33.451  0.00  0.00    +0.000 C 
ATOM     13  C10 UNL     1      18.365  36.759  34.919  0.00  0.00    +0.000 A 
ATOM     14  C27 UNL     1      18.914  35.488  34.961  0.00  0.00    +0.000 A 
BRANCH   9  20
ATOM     15  C2  UNL     1      17.455  32.543  33.115  0.00  0.00    +0.000 A 
ATOM     16  C3  UNL     1      17.708  31.192  32.802  0.00  0.00    +0.000 A 
ATOM     17  C4  UNL     1      18.988  30.657  32.950  0.00  0.00    +0.000 A 
ATOM     18  C5  UNL     1      20.029  31.456  33.415  0.00  0.00    +0.000 A 
ATOM     19  C6  UNL     1      19.797  32.794  33.733  0.00  0.00    +0.000 A 
ATOM     20  C7  UNL     1      18.513  33.356  33.591  0.00  0.00    +0.000 A 
BRANCH  15  22
ATOM     21  C1  UNL     1      15.411  33.049  31.754  0.00  0.00    +0.000 C 
ATOM     22  O1  UNL     1      16.175  33.101  32.955  0.00  0.00    +0.000 OA
ENDBRANCH  15  22
ENDBRANCH   9  20
ENDBRANCH   1  13
BRANCH   8  23
ATOM     23  C18 UNL     1      21.422  36.331  38.536  0.00  0.00    +0.000 C 
BRANCH  23  24
ATOM     24  N4  UNL     1      21.089  35.182  37.693  0.00  0.00    +0.000 N 
ATOM     25  C19 UNL     1      20.514  33.977  38.214  0.00  0.00    +0.000 C 
ATOM     26  O2  UNL     1      20.134  33.923  39.415  0.00  0.00    +0.000 OA
ATOM     27  N5  UNL     1      20.374  32.832  37.365  0.00  0.00    +0.000 N 
ATOM     28  H24 UNL     1      21.275  35.247  36.667  0.00  0.00    +0.000 HD
ATOM     29  H25 UNL     1      20.577  32.930  36.346  0.00  0.00    +0.000 HD
BRANCH  27  30
ATOM     30  C20 UNL     1      20.059  31.505  37.889  0.00  0.00    +0.000 C 
BRANCH  30  31
ATOM     31  C21 UNL     1      18.580  31.250  37.787  0.00  0.00    +0.000 A 
ATOM     32  C22 UNL     1      17.826  31.014  38.948  0.00  0.00    +0.000 A 
ATOM     33  C23 UNL     1      16.445  30.812  38.864  0.00  0.00    +0.000 A 
ATOM     34  C24 UNL     1      15.805  30.854  37.621  0.00  0.00    +0.000 A 
ATOM     35  C25 UNL     1      16.546  31.105  36.462  0.00  0.00    +0.000 A 
ATOM     36  C26 UNL     1      17.929  31.305  36.542  0.00  0.00    +0.000 A 
ENDBRANCH  30  31
ENDBRANCH  27  30
ENDBRANCH  23  24
ENDBRANCH   8  23
TORSDOF 7
ENDMDL
MODEL 10
REMARK VINA RESULT:    -7.013      3.212      5.276
REMARK INTER + INTRA:         -10.867
REMARK INTER:                  -9.871
REMARK INTRA:                  -0.996
REMARK UNBOUND:                -0.984
REMARK  Name = CNP0012493_1.pdb
REMARK  9 active torsions:
REMARK  status: ('A' for Active; 'I' for Inactive)
REMARK    1  A    between atoms: C1_1  and  O1_2
REMARK    2  A    between atoms: O1_2  and  C2_3
REMARK    3  A    between atoms: C7_8  and  C8_9
REMARK    4  A    between atoms: N2_11  and  C9_12
REMARK    5  A    between atoms: C10_13  and  C11_14
REMARK    6  A    between atoms: C17_21  and  C18_22
REMARK    7  A    between atoms: C18_22  and  N4_23
REMARK    8  A    between atoms: N5_26  and  C20_27
REMARK    9  A    between atoms: C20_27  and  C21_28
REMARK                            x       y       z     vdW  Elec       q    Type
REMARK                         _______ _______ _______ _____ _____    ______ ____
ROOT
ATOM      1  C11 UNL     1      26.177  34.977  37.899  0.00  0.00    +0.000 C 
ATOM      2  C12 UNL     1      27.540  35.676  37.616  0.00  0.00    +0.000 C 
ATOM      3  N3  UNL     1      28.509  35.417  38.724  0.00  0.00    +0.000 NA
ATOM      4  C13 UNL     1      28.578  33.949  38.962  0.00  0.00    +0.000 C 
ATOM      5  C14 UNL     1      27.230  33.417  39.528  0.00  0.00    +0.000 C 
ATOM      6  C15 UNL     1      26.154  34.521  39.379  0.00  0.00    +0.000 C 
ATOM      7  C16 UNL     1      26.565  35.707  40.280  0.00  0.00    +0.000 C 
ATOM      8  C17 UNL     1      28.056  36.061  39.991  0.00  0.00    +0.000 C 
ENDROOT
BRANCH   1  13
ATOM      9  C8  UNL     1      22.919  36.638  37.645  0.00  0.00    +0.000 A 
ATOM     10  N1  UNL     1      23.264  36.625  36.345  0.00  0.00    +0.000 NA
ATOM     11  N2  UNL     1      24.444  36.034  36.228  0.00  0.00    +0.000 N 
ATOM     12  C9  UNL     1      25.056  35.852  34.918  0.00  0.00    +0.000 C 
ATOM     13  C10 UNL     1      24.871  35.636  37.457  0.00  0.00    +0.000 A 
ATOM     14  C27 UNL     1      23.915  36.026  38.381  0.00  0.00    +0.000 A 
BRANCH   9  20
ATOM     15  C2  UNL     1      20.565  36.441  38.553  0.00  0.00    +0.000 A 
ATOM     16  C3  UNL     1      19.390  37.057  39.029  0.00  0.00    +0.000 A 
ATOM     17  C4  UNL     1      19.310  38.446  39.133  0.00  0.00    +0.000 A 
ATOM     18  C5  UNL     1      20.394  39.238  38.762  0.00  0.00    +0.000 A 
ATOM     19  C6  UNL     1      21.563  38.646  38.286  0.00  0.00    +0.000 A 
ATOM     20  C7  UNL     1      21.667  37.245  38.172  0.00  0.00    +0.000 A 
BRANCH  15  22
ATOM     21  C1  UNL     1      20.288  34.129  39.483  0.00  0.00    +0.000 C 
ATOM     22  O1  UNL     1      20.667  35.042  38.458  0.00  0.00    +0.000 OA
ENDBRANCH  15  22
ENDBRANCH   9  20
ENDBRANCH   1  13
BRANCH   8  23
ATOM     23  C18 UNL     1      28.380  37.571  40.016  0.00  0.00    +0.000 C 
BRANCH  23  24
ATOM     24  N4  UNL     1      29.623  37.858  39.299  0.00  0.00    +0.000 N 
ATOM     25  C19 UNL     1      29.961  39.166  38.822  0.00  0.00    +0.000 C 
ATOM     26  O2  UNL     1      29.253  40.160  39.140  0.00  0.00    +0.000 OA
ATOM     27  N5  UNL     1      31.108  39.342  37.981  0.00  0.00    +0.000 N 
ATOM     28  H24 UNL     1      30.294  37.074  39.133  0.00  0.00    +0.000 HD
ATOM     29  H25 UNL     1      31.752  38.534  37.829  0.00  0.00    +0.000 HD
BRANCH  27  30
ATOM     30  C20 UNL     1      31.353  40.577  37.243  0.00  0.00    +0.000 C 
BRANCH  30  31
ATOM     31  C21 UNL     1      31.399  40.293  35.765  0.00  0.00    +0.000 A 
ATOM     32  C22 UNL     1      31.720  39.003  35.309  0.00  0.00    +0.000 A 
ATOM     33  C23 UNL     1      31.729  38.722  33.939  0.00  0.00    +0.000 A 
ATOM     34  C24 UNL     1      31.409  39.723  33.017  0.00  0.00    +0.000 A 
ATOM     35  C25 UNL     1      31.073  41.005  33.464  0.00  0.00    +0.000 A 
ATOM     36  C26 UNL     1      31.065  41.291  34.834  0.00  0.00    +0.000 A 
ENDBRANCH  30  31
ENDBRANCH  27  30
ENDBRANCH  23  24
ENDBRANCH   8  23
TORSDOF 7
ENDMDL
