
MODEL 4
REMARK VINA RESULT:    -7.407      3.841      5.895
REMARK INTER + INTRA:          -8.989
REMARK INTER:                  -8.092
REMARK INTRA:                  -0.897
REMARK UNBOUND:                -0.500
REMARK  Name = CNP0183427_0.pdb
REMARK  4 active torsions:
REMARK  status: ('A' for Active; 'I' for Inactive)
REMARK    1  A    between atoms: C1_1  and  N1_2
REMARK    2  A    between atoms: C3_4  and  C4_5
REMARK    3  A    between atoms: C12_14  and  C13_15
REMARK    4  A    between atoms: C16_18  and  O2_19
REMARK                            x       y       z     vdW  Elec       q    Type
REMARK                         _______ _______ _______ _____ _____    ______ ____
ROOT
ATOM      1  C4  UNL     1      23.312  34.164  39.045  0.00  0.00    +0.000 C 
ATOM      2  C5  UNL     1      23.159  35.083  38.087  0.00  0.00    +0.000 C 
ATOM      3  O1  UNL     1      21.924  35.650  37.768  0.00  0.00    +0.000 OA
ATOM      4  C6  UNL     1      22.137  36.557  36.730  0.00  0.00    +0.000 A 
ATOM      5  C7  UNL     1      23.460  36.596  36.351  0.00  0.00    +0.000 A 
ATOM      6  C8  UNL     1      23.914  37.442  35.342  0.00  0.00    +0.000 A 
ATOM      7  C9  UNL     1      22.977  38.275  34.709  0.00  0.00    +0.000 A 
ATOM      8  C10 UNL     1      21.617  38.244  35.089  0.00  0.00    +0.000 A 
ATOM      9  C11 UNL     1      21.179  37.365  36.109  0.00  0.00    +0.000 A 
ATOM     10  C12 UNL     1      19.740  37.375  36.577  0.00  0.00    +0.000 C 
ATOM     11  C19 UNL     1      18.771  37.862  35.477  0.00  0.00    +0.000 C 
ATOM     12  C20 UNL     1      19.335  39.013  34.693  0.00  0.00    +0.000 C 
ATOM     13  O3  UNL     1      18.563  39.867  34.186  0.00  0.00    +0.000 OA
ATOM     14  O4  UNL     1      20.709  39.098  34.456  0.00  0.00    +0.000 OA
ATOM     15  C21 UNL     1      24.173  35.652  37.187  0.00  0.00    +0.000 C 
ATOM     16  O5  UNL     1      25.388  35.335  37.093  0.00  0.00    +0.000 OA
ENDROOT
BRANCH   1  20
ATOM     17  C1  UNL     1      27.130  30.948  39.531  0.00  0.00    +0.000 C 
ATOM     18  N1  UNL     1      26.309  32.148  39.668  0.00  0.00    +0.000 N 
ATOM     19  C2  UNL     1      25.142  32.395  39.027  0.00  0.00    +0.000 A 
ATOM     20  C3  UNL     1      24.613  33.609  39.449  0.00  0.00    +0.000 A 
ATOM     21  C22 UNL     1      25.478  34.084  40.420  0.00  0.00    +0.000 A 
ATOM     22  C23 UNL     1      25.400  35.197  41.258  0.00  0.00    +0.000 A 
ATOM     23  C24 UNL     1      26.431  35.389  42.195  0.00  0.00    +0.000 A 
ATOM     24  C25 UNL     1      27.494  34.465  42.290  0.00  0.00    +0.000 A 
ATOM     25  C26 UNL     1      27.533  33.335  41.452  0.00  0.00    +0.000 A 
ATOM     26  C27 UNL     1      26.502  33.173  40.522  0.00  0.00    +0.000 A 
ENDBRANCH   1  20
BRANCH  10  27
ATOM     27  C13 UNL     1      19.592  38.188  37.852  0.00  0.00    +0.000 A 
ATOM     28  C14 UNL     1      19.864  39.569  37.877  0.00  0.00    +0.000 A 
ATOM     29  C15 UNL     1      19.712  40.301  39.058  0.00  0.00    +0.000 A 
ATOM     30  C16 UNL     1      19.284  39.667  40.229  0.00  0.00    +0.000 A 
ATOM     31  C17 UNL     1      19.003  38.296  40.213  0.00  0.00    +0.000 A 
ATOM     32  C18 UNL     1      19.153  37.561  39.033  0.00  0.00    +0.000 A 
BRANCH  30  33
ATOM     33  O2  UNL     1      19.139  40.409  41.398  0.00  0.00    +0.000 OA
ATOM     34  H11 UNL     1      18.247  40.476  41.876  0.00  0.00    +0.000 HD
ENDBRANCH  30  33
ENDBRANCH  10  27
TORSDOF 3
ENDMDL
