MODEL 1
REMARK VINA RESULT:    -8.258      0.000      0.000
REMARK INTER + INTRA:          -9.965
REMARK INTER:                  -9.465
REMARK INTRA:                  -0.500
REMARK UNBOUND:                -0.500
REMARK  Name = CNP0183427_0.pdb
REMARK  4 active torsions:
REMARK  status: ('A' for Active; 'I' for Inactive)
REMARK    1  A    between atoms: C1_1  and  N1_2
REMARK    2  A    between atoms: C3_4  and  C4_5
REMARK    3  A    between atoms: C12_14  and  C13_15
REMARK    4  A    between atoms: C16_18  and  O2_19
REMARK                            x       y       z     vdW  Elec       q    Type
REMARK                         _______ _______ _______ _____ _____    ______ ____
ROOT
ATOM      1  C4  UNL     1      20.661  32.941  37.193  0.00  0.00    +0.000 C 
ATOM      2  C5  UNL     1      20.450  34.212  37.551  0.00  0.00    +0.000 C 
ATOM      3  O1  UNL     1      20.469  35.271  36.641  0.00  0.00    +0.000 OA
ATOM      4  C6  UNL     1      20.216  36.440  37.356  0.00  0.00    +0.000 A 
ATOM      5  C7  UNL     1      20.044  36.189  38.699  0.00  0.00    +0.000 A 
ATOM      6  C8  UNL     1      19.765  37.204  39.610  0.00  0.00    +0.000 A 
ATOM      7  C9  UNL     1      19.654  38.517  39.121  0.00  0.00    +0.000 A 
ATOM      8  C10 UNL     1      19.828  38.787  37.746  0.00  0.00    +0.000 A 
ATOM      9  C11 UNL     1      20.125  37.738  36.843  0.00  0.00    +0.000 A 
ATOM     10  C12 UNL     1      20.241  38.002  35.358  0.00  0.00    +0.000 C 
ATOM     11  C19 UNL     1      20.664  39.456  35.054  0.00  0.00    +0.000 C 
ATOM     12  C20 UNL     1      19.990  40.444  35.963  0.00  0.00    +0.000 C 
ATOM     13  O3  UNL     1      19.756  41.613  35.558  0.00  0.00    +0.000 OA
ATOM     14  O4  UNL     1      19.694  40.099  37.283  0.00  0.00    +0.000 OA
ATOM     15  C21 UNL     1      20.196  34.760  38.891  0.00  0.00    +0.000 C 
ATOM     16  O5  UNL     1      20.193  34.147  39.990  0.00  0.00    +0.000 OA
ENDROOT
BRANCH   1  20
ATOM     17  C1  UNL     1      22.028  29.017  40.002  0.00  0.00    +0.000 C 
ATOM     18  N1  UNL     1      21.200  30.036  39.363  0.00  0.00    +0.000 N 
ATOM     19  C2  UNL     1      21.646  31.074  38.615  0.00  0.00    +0.000 A 
ATOM     20  C3  UNL     1      20.571  31.803  38.121  0.00  0.00    +0.000 A 
ATOM     21  C22 UNL     1      19.433  31.142  38.552  0.00  0.00    +0.000 A 
ATOM     22  C23 UNL     1      18.082  31.358  38.274  0.00  0.00    +0.000 A 
ATOM     23  C24 UNL     1      17.146  30.469  38.832  0.00  0.00    +0.000 A 
ATOM     24  C25 UNL     1      17.574  29.384  39.628  0.00  0.00    +0.000 A 
ATOM     25  C26 UNL     1      18.944  29.173  39.867  0.00  0.00    +0.000 A 
ATOM     26  C27 UNL     1      19.853  30.077  39.310  0.00  0.00    +0.000 A 
ENDBRANCH   1  20
BRANCH  10  27
ATOM     27  C13 UNL     1      18.953  37.634  34.641  0.00  0.00    +0.000 A 
ATOM     28  C14 UNL     1      18.012  38.615  34.273  0.00  0.00    +0.000 A 
ATOM     29  C15 UNL     1      16.837  38.257  33.607  0.00  0.00    +0.000 A 
ATOM     30  C16 UNL     1      16.585  36.918  33.294  0.00  0.00    +0.000 A 
ATOM     31  C17 UNL     1      17.518  35.935  33.647  0.00  0.00    +0.000 A 
ATOM     32  C18 UNL     1      18.694  36.290  34.314  0.00  0.00    +0.000 A 
BRANCH  30  33
ATOM     33  O2  UNL     1      15.410  36.576  32.630  0.00  0.00    +0.000 OA
ATOM     34  H11 UNL     1      14.934  35.699  32.811  0.00  0.00    +0.000 HD
ENDBRANCH  30  33
ENDBRANCH  10  27
TORSDOF 3
ENDMDL
MODEL 2
REMARK VINA RESULT:    -7.775      8.910     10.704
REMARK INTER + INTRA:          -9.411
REMARK INTER:                  -8.525
REMARK INTRA:                  -0.886
REMARK UNBOUND:                -0.500
REMARK  Name = CNP0183427_0.pdb
REMARK  4 active torsions:
REMARK  status: ('A' for Active; 'I' for Inactive)
REMARK    1  A    between atoms: C1_1  and  N1_2
REMARK    2  A    between atoms: C3_4  and  C4_5
REMARK    3  A    between atoms: C12_14  and  C13_15
REMARK    4  A    between atoms: C16_18  and  O2_19
REMARK                            x       y       z     vdW  Elec       q    Type
REMARK                         _______ _______ _______ _____ _____    ______ ____
ROOT
ATOM      1  C4  UNL     1      26.132  35.684  41.198  0.00  0.00    +0.000 C 
ATOM      2  C5  UNL     1      27.078  35.923  40.284  0.00  0.00    +0.000 C 
ATOM      3  O1  UNL     1      27.746  37.145  40.183  0.00  0.00    +0.000 OA
ATOM      4  C6  UNL     1      28.651  37.040  39.129  0.00  0.00    +0.000 A 
ATOM      5  C7  UNL     1      28.594  35.802  38.529  0.00  0.00    +0.000 A 
ATOM      6  C8  UNL     1      29.419  35.460  37.461  0.00  0.00    +0.000 A 
ATOM      7  C9  UNL     1      30.335  36.422  37.001  0.00  0.00    +0.000 A 
ATOM      8  C10 UNL     1      30.404  37.695  37.608  0.00  0.00    +0.000 A 
ATOM      9  C11 UNL     1      29.543  38.022  38.685  0.00  0.00    +0.000 A 
ATOM     10  C12 UNL     1      29.657  39.354  39.392  0.00  0.00    +0.000 C 
ATOM     11  C19 UNL     1      30.239  40.454  38.477  0.00  0.00    +0.000 C 
ATOM     12  C20 UNL     1      31.356  39.941  37.613  0.00  0.00    +0.000 C 
ATOM     13  O3  UNL     1      32.277  40.718  37.249  0.00  0.00    +0.000 OA
ATOM     14  O4  UNL     1      31.338  38.626  37.145  0.00  0.00    +0.000 OA
ATOM     15  C21 UNL     1      27.581  35.035  39.226  0.00  0.00    +0.000 C 
ATOM     16  O5  UNL     1      27.172  33.884  38.924  0.00  0.00    +0.000 OA
ENDROOT
BRANCH   1  20
ATOM     17  C1  UNL     1      25.394  30.895  42.490  0.00  0.00    +0.000 C 
ATOM     18  N1  UNL     1      25.162  32.229  41.944  0.00  0.00    +0.000 N 
ATOM     19  C2  UNL     1      25.985  33.296  42.069  0.00  0.00    +0.000 A 
ATOM     20  C3  UNL     1      25.470  34.382  41.370  0.00  0.00    +0.000 A 
ATOM     21  C22 UNL     1      24.313  33.927  40.761  0.00  0.00    +0.000 A 
ATOM     22  C23 UNL     1      23.443  34.542  39.859  0.00  0.00    +0.000 A 
ATOM     23  C24 UNL     1      22.361  33.789  39.370  0.00  0.00    +0.000 A 
ATOM     24  C25 UNL     1      22.183  32.447  39.770  0.00  0.00    +0.000 A 
ATOM     25  C26 UNL     1      23.091  31.842  40.658  0.00  0.00    +0.000 A 
ATOM     26  C27 UNL     1      24.153  32.615  41.138  0.00  0.00    +0.000 A 
ENDBRANCH   1  20
BRANCH  10  27
ATOM     27  C13 UNL     1      30.457  39.217  40.677  0.00  0.00    +0.000 A 
ATOM     28  C14 UNL     1      31.744  38.647  40.684  0.00  0.00    +0.000 A 
ATOM     29  C15 UNL     1      32.466  38.538  41.876  0.00  0.00    +0.000 A 
ATOM     30  C16 UNL     1      31.917  39.000  43.076  0.00  0.00    +0.000 A 
ATOM     31  C17 UNL     1      30.641  39.576  43.079  0.00  0.00    +0.000 A 
ATOM     32  C18 UNL     1      29.917  39.687  41.889  0.00  0.00    +0.000 A 
BRANCH  30  33
ATOM     33  O2  UNL     1      32.649  38.885  44.255  0.00  0.00    +0.000 OA
ATOM     34  H11 UNL     1      32.954  37.983  44.603  0.00  0.00    +0.000 HD
ENDBRANCH  30  33
ENDBRANCH  10  27
TORSDOF 3
ENDMDL
MODEL 3
REMARK VINA RESULT:    -7.409      6.756     12.278
REMARK INTER + INTRA:          -8.992
REMARK INTER:                  -8.156
REMARK INTRA:                  -0.835
REMARK UNBOUND:                -0.500
REMARK  Name = CNP0183427_0.pdb
REMARK  4 active torsions:
REMARK  status: ('A' for Active; 'I' for Inactive)
REMARK    1  A    between atoms: C1_1  and  N1_2
REMARK    2  A    between atoms: C3_4  and  C4_5
REMARK    3  A    between atoms: C12_14  and  C13_15
REMARK    4  A    between atoms: C16_18  and  O2_19
REMARK                            x       y       z     vdW  Elec       q    Type
REMARK                         _______ _______ _______ _____ _____    ______ ____
ROOT
ATOM      1  C4  UNL     1      23.474  44.018  32.117  0.00  0.00    +0.000 C 
ATOM      2  C5  UNL     1      22.158  43.856  32.286  0.00  0.00    +0.000 C 
ATOM      3  O1  UNL     1      21.565  42.607  32.479  0.00  0.00    +0.000 OA
ATOM      4  C6  UNL     1      20.193  42.813  32.614  0.00  0.00    +0.000 A 
ATOM      5  C7  UNL     1      19.864  44.146  32.505  0.00  0.00    +0.000 A 
ATOM      6  C8  UNL     1      18.551  44.594  32.621  0.00  0.00    +0.000 A 
ATOM      7  C9  UNL     1      17.548  43.641  32.864  0.00  0.00    +0.000 A 
ATOM      8  C10 UNL     1      17.872  42.272  32.978  0.00  0.00    +0.000 A 
ATOM      9  C11 UNL     1      19.214  41.840  32.842  0.00  0.00    +0.000 A 
ATOM     10  C12 UNL     1      19.585  40.387  33.036  0.00  0.00    +0.000 C 
ATOM     11  C19 UNL     1      18.409  39.436  32.722  0.00  0.00    +0.000 C 
ATOM     12  C20 UNL     1      17.098  39.971  33.225  0.00  0.00    +0.000 C 
ATOM     13  O3  UNL     1      16.184  39.176  33.568  0.00  0.00    +0.000 OA
ATOM     14  O4  UNL     1      16.857  41.346  33.239  0.00  0.00    +0.000 OA
ATOM     15  C21 UNL     1      21.097  44.874  32.278  0.00  0.00    +0.000 C 
ATOM     16  O5  UNL     1      21.208  46.105  32.043  0.00  0.00    +0.000 OA
ENDROOT
BRANCH   1  20
ATOM     17  C1  UNL     1      25.410  48.144  30.023  0.00  0.00    +0.000 C 
ATOM     18  N1  UNL     1      25.005  47.166  31.029  0.00  0.00    +0.000 N 
ATOM     19  C2  UNL     1      24.268  46.052  30.808  0.00  0.00    +0.000 A 
ATOM     20  C3  UNL     1      24.128  45.330  31.987  0.00  0.00    +0.000 A 
ATOM     21  C22 UNL     1      24.856  46.018  32.943  0.00  0.00    +0.000 A 
ATOM     22  C23 UNL     1      25.157  45.709  34.271  0.00  0.00    +0.000 A 
ATOM     23  C24 UNL     1      25.977  46.600  34.984  0.00  0.00    +0.000 A 
ATOM     24  C25 UNL     1      26.491  47.758  34.359  0.00  0.00    +0.000 A 
ATOM     25  C26 UNL     1      26.195  48.030  33.011  0.00  0.00    +0.000 A 
ATOM     26  C27 UNL     1      25.369  47.133  32.327  0.00  0.00    +0.000 A 
ENDBRANCH   1  20
BRANCH  10  27
ATOM     27  C13 UNL     1      20.137  40.151  34.432  0.00  0.00    +0.000 A 
ATOM     28  C14 UNL     1      19.590  40.800  35.556  0.00  0.00    +0.000 A 
ATOM     29  C15 UNL     1      20.107  40.562  36.833  0.00  0.00    +0.000 A 
ATOM     30  C16 UNL     1      21.170  39.672  37.008  0.00  0.00    +0.000 A 
ATOM     31  C17 UNL     1      21.716  39.016  35.898  0.00  0.00    +0.000 A 
ATOM     32  C18 UNL     1      21.202  39.251  34.620  0.00  0.00    +0.000 A 
BRANCH  30  33
ATOM     33  O2  UNL     1      21.675  39.447  38.286  0.00  0.00    +0.000 OA
ATOM     34  H11 UNL     1      21.368  38.658  38.845  0.00  0.00    +0.000 HD
ENDBRANCH  30  33
ENDBRANCH  10  27
TORSDOF 3
ENDMDL
MODEL 4
REMARK VINA RESULT:    -7.407      3.841      5.895
REMARK INTER + INTRA:          -8.989
REMARK INTER:                  -8.092
REMARK INTRA:                  -0.897
REMARK UNBOUND:                -0.500
REMARK  Name = CNP0183427_0.pdb
REMARK  4 active torsions:
REMARK  status: ('A' for Active; 'I' for Inactive)
REMARK    1  A    between atoms: C1_1  and  N1_2
REMARK    2  A    between atoms: C3_4  and  C4_5
REMARK    3  A    between atoms: C12_14  and  C13_15
REMARK    4  A    between atoms: C16_18  and  O2_19
REMARK                            x       y       z     vdW  Elec       q    Type
REMARK                         _______ _______ _______ _____ _____    ______ ____
ROOT
ATOM      1  C4  UNL     1      23.312  34.164  39.045  0.00  0.00    +0.000 C 
ATOM      2  C5  UNL     1      23.159  35.083  38.087  0.00  0.00    +0.000 C 
ATOM      3  O1  UNL     1      21.924  35.650  37.768  0.00  0.00    +0.000 OA
ATOM      4  C6  UNL     1      22.137  36.557  36.730  0.00  0.00    +0.000 A 
ATOM      5  C7  UNL     1      23.460  36.596  36.351  0.00  0.00    +0.000 A 
ATOM      6  C8  UNL     1      23.914  37.442  35.342  0.00  0.00    +0.000 A 
ATOM      7  C9  UNL     1      22.977  38.275  34.709  0.00  0.00    +0.000 A 
ATOM      8  C10 UNL     1      21.617  38.244  35.089  0.00  0.00    +0.000 A 
ATOM      9  C11 UNL     1      21.179  37.365  36.109  0.00  0.00    +0.000 A 
ATOM     10  C12 UNL     1      19.740  37.375  36.577  0.00  0.00    +0.000 C 
ATOM     11  C19 UNL     1      18.771  37.862  35.477  0.00  0.00    +0.000 C 
ATOM     12  C20 UNL     1      19.335  39.013  34.693  0.00  0.00    +0.000 C 
ATOM     13  O3  UNL     1      18.563  39.867  34.186  0.00  0.00    +0.000 OA
ATOM     14  O4  UNL     1      20.709  39.098  34.456  0.00  0.00    +0.000 OA
ATOM     15  C21 UNL     1      24.173  35.652  37.187  0.00  0.00    +0.000 C 
ATOM     16  O5  UNL     1      25.388  35.335  37.093  0.00  0.00    +0.000 OA
ENDROOT
BRANCH   1  20
ATOM     17  C1  UNL     1      27.130  30.948  39.531  0.00  0.00    +0.000 C 
ATOM     18  N1  UNL     1      26.309  32.148  39.668  0.00  0.00    +0.000 N 
ATOM     19  C2  UNL     1      25.142  32.395  39.027  0.00  0.00    +0.000 A 
ATOM     20  C3  UNL     1      24.613  33.609  39.449  0.00  0.00    +0.000 A 
ATOM     21  C22 UNL     1      25.478  34.084  40.420  0.00  0.00    +0.000 A 
ATOM     22  C23 UNL     1      25.400  35.197  41.258  0.00  0.00    +0.000 A 
ATOM     23  C24 UNL     1      26.431  35.389  42.195  0.00  0.00    +0.000 A 
ATOM     24  C25 UNL     1      27.494  34.465  42.290  0.00  0.00    +0.000 A 
ATOM     25  C26 UNL     1      27.533  33.335  41.452  0.00  0.00    +0.000 A 
ATOM     26  C27 UNL     1      26.502  33.173  40.522  0.00  0.00    +0.000 A 
ENDBRANCH   1  20
BRANCH  10  27
ATOM     27  C13 UNL     1      19.592  38.188  37.852  0.00  0.00    +0.000 A 
ATOM     28  C14 UNL     1      19.864  39.569  37.877  0.00  0.00    +0.000 A 
ATOM     29  C15 UNL     1      19.712  40.301  39.058  0.00  0.00    +0.000 A 
ATOM     30  C16 UNL     1      19.284  39.667  40.229  0.00  0.00    +0.000 A 
ATOM     31  C17 UNL     1      19.003  38.296  40.213  0.00  0.00    +0.000 A 
ATOM     32  C18 UNL     1      19.153  37.561  39.033  0.00  0.00    +0.000 A 
BRANCH  30  33
ATOM     33  O2  UNL     1      19.139  40.409  41.398  0.00  0.00    +0.000 OA
ATOM     34  H11 UNL     1      18.247  40.476  41.876  0.00  0.00    +0.000 HD
ENDBRANCH  30  33
ENDBRANCH  10  27
TORSDOF 3
ENDMDL
MODEL 5
REMARK VINA RESULT:    -7.293      2.871      4.105
REMARK INTER + INTRA:          -8.858
REMARK INTER:                  -7.901
REMARK INTRA:                  -0.957
REMARK UNBOUND:                -0.500
REMARK  Name = CNP0183427_0.pdb
REMARK  4 active torsions:
REMARK  status: ('A' for Active; 'I' for Inactive)
REMARK    1  A    between atoms: C1_1  and  N1_2
REMARK    2  A    between atoms: C3_4  and  C4_5
REMARK    3  A    between atoms: C12_14  and  C13_15
REMARK    4  A    between atoms: C16_18  and  O2_19
REMARK                            x       y       z     vdW  Elec       q    Type
REMARK                         _______ _______ _______ _____ _____    ______ ____
ROOT
ATOM      1  C4  UNL     1      22.036  36.176  36.324  0.00  0.00    +0.000 C 
ATOM      2  C5  UNL     1      21.396  37.333  36.125  0.00  0.00    +0.000 C 
ATOM      3  O1  UNL     1      20.891  37.718  34.881  0.00  0.00    +0.000 OA
ATOM      4  C6  UNL     1      20.297  38.969  35.042  0.00  0.00    +0.000 A 
ATOM      5  C7  UNL     1      20.403  39.421  36.338  0.00  0.00    +0.000 A 
ATOM      6  C8  UNL     1      19.869  40.643  36.740  0.00  0.00    +0.000 A 
ATOM      7  C9  UNL     1      19.199  41.418  35.778  0.00  0.00    +0.000 A 
ATOM      8  C10 UNL     1      19.083  40.964  34.446  0.00  0.00    +0.000 A 
ATOM      9  C11 UNL     1      19.648  39.724  34.060  0.00  0.00    +0.000 A 
ATOM     10  C12 UNL     1      19.466  39.192  32.655  0.00  0.00    +0.000 C 
ATOM     11  C19 UNL     1      19.252  40.323  31.625  0.00  0.00    +0.000 C 
ATOM     12  C20 UNL     1      18.368  41.415  32.157  0.00  0.00    +0.000 C 
ATOM     13  O3  UNL     1      17.651  42.084  31.368  0.00  0.00    +0.000 OA
ATOM     14  O4  UNL     1      18.395  41.746  33.513  0.00  0.00    +0.000 OA
ATOM     15  C21 UNL     1      21.119  38.408  37.088  0.00  0.00    +0.000 C 
ATOM     16  O5  UNL     1      21.490  38.487  38.288  0.00  0.00    +0.000 OA
ENDROOT
BRANCH   1  20
ATOM     17  C1  UNL     1      25.149  34.998  40.076  0.00  0.00    +0.000 C 
ATOM     18  N1  UNL     1      23.922  35.180  39.305  0.00  0.00    +0.000 N 
ATOM     19  C2  UNL     1      23.821  35.778  38.094  0.00  0.00    +0.000 A 
ATOM     20  C3  UNL     1      22.509  35.717  37.639  0.00  0.00    +0.000 A 
ATOM     21  C22 UNL     1      21.807  35.008  38.598  0.00  0.00    +0.000 A 
ATOM     22  C23 UNL     1      20.487  34.554  38.625  0.00  0.00    +0.000 A 
ATOM     23  C24 UNL     1      20.073  33.802  39.738  0.00  0.00    +0.000 A 
ATOM     24  C25 UNL     1      20.979  33.503  40.779  0.00  0.00    +0.000 A 
ATOM     25  C26 UNL     1      22.312  33.949  40.713  0.00  0.00    +0.000 A 
ATOM     26  C27 UNL     1      22.696  34.704  39.600  0.00  0.00    +0.000 A 
ENDBRANCH   1  20
BRANCH  10  27
ATOM     27  C13 UNL     1      18.342  38.171  32.605  0.00  0.00    +0.000 A 
ATOM     28  C14 UNL     1      17.360  38.111  33.612  0.00  0.00    +0.000 A 
ATOM     29  C15 UNL     1      16.329  37.169  33.542  0.00  0.00    +0.000 A 
ATOM     30  C16 UNL     1      16.261  36.279  32.466  0.00  0.00    +0.000 A 
ATOM     31  C17 UNL     1      17.228  36.336  31.456  0.00  0.00    +0.000 A 
ATOM     32  C18 UNL     1      18.260  37.276  31.522  0.00  0.00    +0.000 A 
BRANCH  30  33
ATOM     33  O2  UNL     1      15.228  35.346  32.411  0.00  0.00    +0.000 OA
ATOM     34  H11 UNL     1      14.381  35.460  32.955  0.00  0.00    +0.000 HD
ENDBRANCH  30  33
ENDBRANCH  10  27
TORSDOF 3
ENDMDL
MODEL 6
REMARK VINA RESULT:    -7.253      1.518      2.658
REMARK INTER + INTRA:          -8.812
REMARK INTER:                  -7.940
REMARK INTRA:                  -0.873
REMARK UNBOUND:                -0.500
REMARK  Name = CNP0183427_0.pdb
REMARK  4 active torsions:
REMARK  status: ('A' for Active; 'I' for Inactive)
REMARK    1  A    between atoms: C1_1  and  N1_2
REMARK    2  A    between atoms: C3_4  and  C4_5
REMARK    3  A    between atoms: C12_14  and  C13_15
REMARK    4  A    between atoms: C16_18  and  O2_19
REMARK                            x       y       z     vdW  Elec       q    Type
REMARK                         _______ _______ _______ _____ _____    ______ ____
ROOT
ATOM      1  C4  UNL     1      21.865  33.658  37.387  0.00  0.00    +0.000 C 
ATOM      2  C5  UNL     1      21.363  34.859  37.692  0.00  0.00    +0.000 C 
ATOM      3  O1  UNL     1      21.260  35.897  36.765  0.00  0.00    +0.000 OA
ATOM      4  C6  UNL     1      20.701  36.991  37.424  0.00  0.00    +0.000 A 
ATOM      5  C7  UNL     1      20.446  36.712  38.748  0.00  0.00    +0.000 A 
ATOM      6  C8  UNL     1      19.872  37.651  39.602  0.00  0.00    +0.000 A 
ATOM      7  C9  UNL     1      19.547  38.911  39.075  0.00  0.00    +0.000 A 
ATOM      8  C10 UNL     1      19.804  39.209  37.718  0.00  0.00    +0.000 A 
ATOM      9  C11 UNL     1      20.401  38.241  36.874  0.00  0.00    +0.000 A 
ATOM     10  C12 UNL     1      20.612  38.520  35.402  0.00  0.00    +0.000 C 
ATOM     11  C19 UNL     1      20.758  40.030  35.109  0.00  0.00    +0.000 C 
ATOM     12  C20 UNL     1      19.807  40.860  35.922  0.00  0.00    +0.000 C 
ATOM     13  O3  UNL     1      19.381  41.955  35.469  0.00  0.00    +0.000 OA
ATOM     14  O4  UNL     1      19.453  40.464  37.213  0.00  0.00    +0.000 OA
ATOM     15  C21 UNL     1      20.866  35.346  38.987  0.00  0.00    +0.000 C 
ATOM     16  O5  UNL     1      20.875  34.747  40.094  0.00  0.00    +0.000 OA
ENDROOT
BRANCH   1  20
ATOM     17  C1  UNL     1      20.425  29.643  40.026  0.00  0.00    +0.000 C 
ATOM     18  N1  UNL     1      21.246  30.736  39.513  0.00  0.00    +0.000 N 
ATOM     19  C2  UNL     1      20.918  31.574  38.501  0.00  0.00    +0.000 A 
ATOM     20  C3  UNL     1      21.915  32.527  38.328  0.00  0.00    +0.000 A 
ATOM     21  C22 UNL     1      22.855  32.278  39.313  0.00  0.00    +0.000 A 
ATOM     22  C23 UNL     1      24.007  32.974  39.684  0.00  0.00    +0.000 A 
ATOM     23  C24 UNL     1      24.743  32.490  40.780  0.00  0.00    +0.000 A 
ATOM     24  C25 UNL     1      24.308  31.348  41.488  0.00  0.00    +0.000 A 
ATOM     25  C26 UNL     1      23.127  30.683  41.110  0.00  0.00    +0.000 A 
ATOM     26  C27 UNL     1      22.419  31.177  40.011  0.00  0.00    +0.000 A 
ENDBRANCH   1  20
BRANCH  10  27
ATOM     27  C13 UNL     1      19.507  37.894  34.568  0.00  0.00    +0.000 A 
ATOM     28  C14 UNL     1      18.286  37.497  35.147  0.00  0.00    +0.000 A 
ATOM     29  C15 UNL     1      17.280  36.931  34.360  0.00  0.00    +0.000 A 
ATOM     30  C16 UNL     1      17.473  36.756  32.987  0.00  0.00    +0.000 A 
ATOM     31  C17 UNL     1      18.680  37.154  32.400  0.00  0.00    +0.000 A 
ATOM     32  C18 UNL     1      19.689  37.721  33.184  0.00  0.00    +0.000 A 
BRANCH  30  33
ATOM     33  O2  UNL     1      16.461  36.190  32.216  0.00  0.00    +0.000 OA
ATOM     34  H11 UNL     1      16.106  36.650  31.386  0.00  0.00    +0.000 HD
ENDBRANCH  30  33
ENDBRANCH  10  27
TORSDOF 3
ENDMDL
MODEL 7
REMARK VINA RESULT:    -7.186      4.184      7.501
REMARK INTER + INTRA:          -8.736
REMARK INTER:                  -7.890
REMARK INTRA:                  -0.846
REMARK UNBOUND:                -0.500
REMARK  Name = CNP0183427_0.pdb
REMARK  4 active torsions:
REMARK  status: ('A' for Active; 'I' for Inactive)
REMARK    1  A    between atoms: C1_1  and  N1_2
REMARK    2  A    between atoms: C3_4  and  C4_5
REMARK    3  A    between atoms: C12_14  and  C13_15
REMARK    4  A    between atoms: C16_18  and  O2_19
REMARK                            x       y       z     vdW  Elec       q    Type
REMARK                         _______ _______ _______ _____ _____    ______ ____
ROOT
ATOM      1  C4  UNL     1      20.108  40.265  36.223  0.00  0.00    +0.000 C 
ATOM      2  C5  UNL     1      19.164  40.217  35.278  0.00  0.00    +0.000 C 
ATOM      3  O1  UNL     1      18.501  41.352  34.809  0.00  0.00    +0.000 OA
ATOM      4  C6  UNL     1      17.590  40.932  33.841  0.00  0.00    +0.000 A 
ATOM      5  C7  UNL     1      17.623  39.566  33.667  0.00  0.00    +0.000 A 
ATOM      6  C8  UNL     1      16.810  38.920  32.740  0.00  0.00    +0.000 A 
ATOM      7  C9  UNL     1      15.941  39.705  31.964  0.00  0.00    +0.000 A 
ATOM      8  C10 UNL     1      15.897  41.107  32.133  0.00  0.00    +0.000 A 
ATOM      9  C11 UNL     1      16.725  41.738  33.093  0.00  0.00    +0.000 A 
ATOM     10  C12 UNL     1      16.743  43.244  33.232  0.00  0.00    +0.000 C 
ATOM     11  C19 UNL     1      15.412  43.888  32.783  0.00  0.00    +0.000 C 
ATOM     12  C20 UNL     1      14.852  43.234  31.552  0.00  0.00    +0.000 C 
ATOM     13  O3  UNL     1      14.152  43.902  30.747  0.00  0.00    +0.000 OA
ATOM     14  O4  UNL     1      15.037  41.867  31.335  0.00  0.00    +0.000 OA
ATOM     15  C21 UNL     1      18.618  39.043  34.582  0.00  0.00    +0.000 C 
ATOM     16  O5  UNL     1      18.885  37.830  34.785  0.00  0.00    +0.000 OA
ENDROOT
BRANCH   1  20
ATOM     17  C1  UNL     1      23.515  36.584  36.297  0.00  0.00    +0.000 C 
ATOM     18  N1  UNL     1      22.398  37.439  36.687  0.00  0.00    +0.000 N 
ATOM     19  C2  UNL     1      22.008  38.577  36.065  0.00  0.00    +0.000 A 
ATOM     20  C3  UNL     1      20.872  39.092  36.678  0.00  0.00    +0.000 A 
ATOM     21  C22 UNL     1      20.541  38.195  37.680  0.00  0.00    +0.000 A 
ATOM     22  C23 UNL     1      19.446  38.142  38.543  0.00  0.00    +0.000 A 
ATOM     23  C24 UNL     1      19.363  37.057  39.434  0.00  0.00    +0.000 A 
ATOM     24  C25 UNL     1      20.351  36.049  39.430  0.00  0.00    +0.000 A 
ATOM     25  C26 UNL     1      21.429  36.112  38.528  0.00  0.00    +0.000 A 
ATOM     26  C27 UNL     1      21.494  37.206  37.660  0.00  0.00    +0.000 A 
ENDBRANCH   1  20
BRANCH  10  27
ATOM     27  C13 UNL     1      17.929  43.842  32.494  0.00  0.00    +0.000 A 
ATOM     28  C14 UNL     1      18.034  43.767  31.092  0.00  0.00    +0.000 A 
ATOM     29  C15 UNL     1      19.130  44.331  30.432  0.00  0.00    +0.000 A 
ATOM     30  C16 UNL     1      20.132  44.980  31.158  0.00  0.00    +0.000 A 
ATOM     31  C17 UNL     1      20.033  45.068  32.552  0.00  0.00    +0.000 A 
ATOM     32  C18 UNL     1      18.939  44.505  33.216  0.00  0.00    +0.000 A 
BRANCH  30  33
ATOM     33  O2  UNL     1      21.218  45.537  30.487  0.00  0.00    +0.000 OA
ATOM     34  H11 UNL     1      21.301  46.538  30.352  0.00  0.00    +0.000 HD
ENDBRANCH  30  33
ENDBRANCH  10  27
TORSDOF 3
ENDMDL
MODEL 8
REMARK VINA RESULT:    -7.173      4.416      6.658
REMARK INTER + INTRA:          -8.721
REMARK INTER:                  -7.805
REMARK INTRA:                  -0.916
REMARK UNBOUND:                -0.500
REMARK  Name = CNP0183427_0.pdb
REMARK  4 active torsions:
REMARK  status: ('A' for Active; 'I' for Inactive)
REMARK    1  A    between atoms: C1_1  and  N1_2
REMARK    2  A    between atoms: C3_4  and  C4_5
REMARK    3  A    between atoms: C12_14  and  C13_15
REMARK    4  A    between atoms: C16_18  and  O2_19
REMARK                            x       y       z     vdW  Elec       q    Type
REMARK                         _______ _______ _______ _____ _____    ______ ____
ROOT
ATOM      1  C4  UNL     1      24.175  35.001  37.150  0.00  0.00    +0.000 C 
ATOM      2  C5  UNL     1      23.691  36.017  36.429  0.00  0.00    +0.000 C 
ATOM      3  O1  UNL     1      22.335  36.344  36.390  0.00  0.00    +0.000 OA
ATOM      4  C6  UNL     1      22.194  37.442  35.544  0.00  0.00    +0.000 A 
ATOM      5  C7  UNL     1      23.403  37.840  35.018  0.00  0.00    +0.000 A 
ATOM      6  C8  UNL     1      23.511  38.928  34.156  0.00  0.00    +0.000 A 
ATOM      7  C9  UNL     1      22.340  39.631  33.831  0.00  0.00    +0.000 A 
ATOM      8  C10 UNL     1      21.093  39.234  34.364  0.00  0.00    +0.000 A 
ATOM      9  C11 UNL     1      21.009  38.115  35.228  0.00  0.00    +0.000 A 
ATOM     10  C12 UNL     1      19.693  37.724  35.864  0.00  0.00    +0.000 C 
ATOM     11  C19 UNL     1      18.480  38.170  35.019  0.00  0.00    +0.000 C 
ATOM     12  C20 UNL     1      18.673  39.536  34.425  0.00  0.00    +0.000 C 
ATOM     13  O3  UNL     1      17.677  40.274  34.206  0.00  0.00    +0.000 OA
ATOM     14  O4  UNL     1      19.946  39.963  34.040  0.00  0.00    +0.000 OA
ATOM     15  C21 UNL     1      24.414  36.945  35.545  0.00  0.00    +0.000 C 
ATOM     16  O5  UNL     1      25.634  36.926  35.236  0.00  0.00    +0.000 OA
ENDROOT
BRANCH   1  20
ATOM     17  C1  UNL     1      28.579  32.708  36.436  0.00  0.00    +0.000 C 
ATOM     18  N1  UNL     1      27.571  33.636  36.942  0.00  0.00    +0.000 N 
ATOM     19  C2  UNL     1      26.291  33.737  36.512  0.00  0.00    +0.000 A 
ATOM     20  C3  UNL     1      25.608  34.686  37.264  0.00  0.00    +0.000 A 
ATOM     21  C22 UNL     1      26.506  35.135  38.217  0.00  0.00    +0.000 A 
ATOM     22  C23 UNL     1      26.346  36.005  39.297  0.00  0.00    +0.000 A 
ATOM     23  C24 UNL     1      27.455  36.229  40.131  0.00  0.00    +0.000 A 
ATOM     24  C25 UNL     1      28.680  35.572  39.887  0.00  0.00    +0.000 A 
ATOM     25  C26 UNL     1      28.806  34.678  38.808  0.00  0.00    +0.000 A 
ATOM     26  C27 UNL     1      27.692  34.480  37.987  0.00  0.00    +0.000 A 
ENDBRANCH   1  20
BRANCH  10  27
ATOM     27  C13 UNL     1      19.604  38.248  37.288  0.00  0.00    +0.000 A 
ATOM     28  C14 UNL     1      19.131  37.439  38.339  0.00  0.00    +0.000 A 
ATOM     29  C15 UNL     1      19.065  37.937  39.643  0.00  0.00    +0.000 A 
ATOM     30  C16 UNL     1      19.473  39.245  39.919  0.00  0.00    +0.000 A 
ATOM     31  C17 UNL     1      19.952  40.055  38.882  0.00  0.00    +0.000 A 
ATOM     32  C18 UNL     1      20.020  39.560  37.577  0.00  0.00    +0.000 A 
BRANCH  30  33
ATOM     33  O2  UNL     1      19.401  39.728  41.223  0.00  0.00    +0.000 OA
ATOM     34  H11 UNL     1      18.516  39.806  41.711  0.00  0.00    +0.000 HD
ENDBRANCH  30  33
ENDBRANCH  10  27
TORSDOF 3
ENDMDL
MODEL 9
REMARK VINA RESULT:    -7.166      3.624      5.567
REMARK INTER + INTRA:          -8.713
REMARK INTER:                  -8.201
REMARK INTRA:                  -0.512
REMARK UNBOUND:                -0.500
REMARK  Name = CNP0183427_0.pdb
REMARK  4 active torsions:
REMARK  status: ('A' for Active; 'I' for Inactive)
REMARK    1  A    between atoms: C1_1  and  N1_2
REMARK    2  A    between atoms: C3_4  and  C4_5
REMARK    3  A    between atoms: C12_14  and  C13_15
REMARK    4  A    between atoms: C16_18  and  O2_19
REMARK                            x       y       z     vdW  Elec       q    Type
REMARK                         _______ _______ _______ _____ _____    ______ ____
ROOT
ATOM      1  C4  UNL     1      22.859  34.288  40.664  0.00  0.00    +0.000 C 
ATOM      2  C5  UNL     1      22.869  34.914  39.484  0.00  0.00    +0.000 C 
ATOM      3  O1  UNL     1      21.724  35.467  38.907  0.00  0.00    +0.000 OA
ATOM      4  C6  UNL     1      22.101  36.030  37.688  0.00  0.00    +0.000 A 
ATOM      5  C7  UNL     1      23.445  35.857  37.441  0.00  0.00    +0.000 A 
ATOM      6  C8  UNL     1      24.053  36.351  36.289  0.00  0.00    +0.000 A 
ATOM      7  C9  UNL     1      23.253  37.047  35.368  0.00  0.00    +0.000 A 
ATOM      8  C10 UNL     1      21.874  37.231  35.611  0.00  0.00    +0.000 A 
ATOM      9  C11 UNL     1      21.277  36.707  36.784  0.00  0.00    +0.000 A 
ATOM     10  C12 UNL     1      19.818  36.961  37.092  0.00  0.00    +0.000 C 
ATOM     11  C19 UNL     1      18.984  37.199  35.814  0.00  0.00    +0.000 C 
ATOM     12  C20 UNL     1      19.716  38.038  34.806  0.00  0.00    +0.000 C 
ATOM     13  O3  UNL     1      19.073  38.777  34.016  0.00  0.00    +0.000 OA
ATOM     14  O4  UNL     1      21.104  37.945  34.688  0.00  0.00    +0.000 OA
ATOM     15  C21 UNL     1      23.997  35.128  38.565  0.00  0.00    +0.000 C 
ATOM     16  O5  UNL     1      25.177  34.703  38.676  0.00  0.00    +0.000 OA
ENDROOT
BRANCH   1  20
ATOM     17  C1  UNL     1      27.397  34.160  42.797  0.00  0.00    +0.000 C 
ATOM     18  N1  UNL     1      26.109  33.725  42.265  0.00  0.00    +0.000 N 
ATOM     19  C2  UNL     1      25.121  34.530  41.808  0.00  0.00    +0.000 A 
ATOM     20  C3  UNL     1      24.066  33.765  41.325  0.00  0.00    +0.000 A 
ATOM     21  C22 UNL     1      24.463  32.445  41.455  0.00  0.00    +0.000 A 
ATOM     22  C23 UNL     1      23.858  31.257  41.042  0.00  0.00    +0.000 A 
ATOM     23  C24 UNL     1      24.545  30.053  41.277  0.00  0.00    +0.000 A 
ATOM     24  C25 UNL     1      25.816  30.061  41.891  0.00  0.00    +0.000 A 
ATOM     25  C26 UNL     1      26.416  31.276  42.271  0.00  0.00    +0.000 A 
ATOM     26  C27 UNL     1      25.707  32.458  42.037  0.00  0.00    +0.000 A 
ENDBRANCH   1  20
BRANCH  10  27
ATOM     27  C13 UNL     1      19.665  38.105  38.080  0.00  0.00    +0.000 A 
ATOM     28  C14 UNL     1      19.884  39.442  37.694  0.00  0.00    +0.000 A 
ATOM     29  C15 UNL     1      19.729  40.480  38.617  0.00  0.00    +0.000 A 
ATOM     30  C16 UNL     1      19.350  40.202  39.933  0.00  0.00    +0.000 A 
ATOM     31  C17 UNL     1      19.122  38.878  40.325  0.00  0.00    +0.000 A 
ATOM     32  C18 UNL     1      19.276  37.836  39.405  0.00  0.00    +0.000 A 
BRANCH  30  33
ATOM     33  O2  UNL     1      19.200  41.248  40.841  0.00  0.00    +0.000 OA
ATOM     34  H11 UNL     1      19.849  41.380  41.609  0.00  0.00    +0.000 HD
ENDBRANCH  30  33
ENDBRANCH  10  27
TORSDOF 3
ENDMDL
MODEL 10
REMARK VINA RESULT:    -7.165      3.541      8.329
REMARK INTER + INTRA:          -8.712
REMARK INTER:                  -8.376
REMARK INTRA:                  -0.335
REMARK UNBOUND:                -0.500
REMARK  Name = CNP0183427_0.pdb
REMARK  4 active torsions:
REMARK  status: ('A' for Active; 'I' for Inactive)
REMARK    1  A    between atoms: C1_1  and  N1_2
REMARK    2  A    between atoms: C3_4  and  C4_5
REMARK    3  A    between atoms: C12_14  and  C13_15
REMARK    4  A    between atoms: C16_18  and  O2_19
REMARK                            x       y       z     vdW  Elec       q    Type
REMARK                         _______ _______ _______ _____ _____    ______ ____
ROOT
ATOM      1  C4  UNL     1      19.882  37.795  37.575  0.00  0.00    +0.000 C 
ATOM      2  C5  UNL     1      21.074  37.198  37.672  0.00  0.00    +0.000 C 
ATOM      3  O1  UNL     1      21.410  36.338  38.719  0.00  0.00    +0.000 OA
ATOM      4  C6  UNL     1      22.718  35.906  38.501  0.00  0.00    +0.000 A 
ATOM      5  C7  UNL     1      23.254  36.459  37.359  0.00  0.00    +0.000 A 
ATOM      6  C8  UNL     1      24.545  36.162  36.931  0.00  0.00    +0.000 A 
ATOM      7  C9  UNL     1      25.303  35.263  37.699  0.00  0.00    +0.000 A 
ATOM      8  C10 UNL     1      24.765  34.688  38.872  0.00  0.00    +0.000 A 
ATOM      9  C11 UNL     1      23.454  35.019  39.293  0.00  0.00    +0.000 A 
ATOM     10  C12 UNL     1      22.838  34.355  40.505  0.00  0.00    +0.000 C 
ATOM     11  C19 UNL     1      23.904  33.885  41.519  0.00  0.00    +0.000 C 
ATOM     12  C20 UNL     1      25.107  33.292  40.843  0.00  0.00    +0.000 C 
ATOM     13  O3  UNL     1      25.778  32.399  41.422  0.00  0.00    +0.000 OA
ATOM     14  O4  UNL     1      25.534  33.782  39.607  0.00  0.00    +0.000 OA
ATOM     15  C21 UNL     1      22.238  37.318  36.782  0.00  0.00    +0.000 C 
ATOM     16  O5  UNL     1      22.371  38.066  35.779  0.00  0.00    +0.000 OA
ENDROOT
BRANCH   1  20
ATOM     17  C1  UNL     1      19.139  41.885  34.769  0.00  0.00    +0.000 C 
ATOM     18  N1  UNL     1      19.142  40.492  35.204  0.00  0.00    +0.000 N 
ATOM     19  C2  UNL     1      19.736  40.005  36.319  0.00  0.00    +0.000 A 
ATOM     20  C3  UNL     1      19.481  38.645  36.442  0.00  0.00    +0.000 A 
ATOM     21  C22 UNL     1      18.657  38.315  35.380  0.00  0.00    +0.000 A 
ATOM     22  C23 UNL     1      18.004  37.125  35.055  0.00  0.00    +0.000 A 
ATOM     23  C24 UNL     1      17.179  37.117  33.916  0.00  0.00    +0.000 A 
ATOM     24  C25 UNL     1      17.007  38.288  33.147  0.00  0.00    +0.000 A 
ATOM     25  C26 UNL     1      17.655  39.482  33.514  0.00  0.00    +0.000 A 
ATOM     26  C27 UNL     1      18.477  39.461  34.644  0.00  0.00    +0.000 A 
ENDBRANCH   1  20
BRANCH  10  27
ATOM     27  C13 UNL     1      21.921  33.216  40.090  0.00  0.00    +0.000 A 
ATOM     28  C14 UNL     1      22.321  31.871  40.213  0.00  0.00    +0.000 A 
ATOM     29  C15 UNL     1      21.459  30.838  39.834  0.00  0.00    +0.000 A 
ATOM     30  C16 UNL     1      20.187  31.130  39.332  0.00  0.00    +0.000 A 
ATOM     31  C17 UNL     1      19.778  32.463  39.213  0.00  0.00    +0.000 A 
ATOM     32  C18 UNL     1      20.636  33.499  39.592  0.00  0.00    +0.000 A 
BRANCH  30  33
ATOM     33  O2  UNL     1      19.340  30.090  38.958  0.00  0.00    +0.000 OA
ATOM     34  H11 UNL     1      18.733  29.633  39.629  0.00  0.00    +0.000 HD
ENDBRANCH  30  33
ENDBRANCH  10  27
TORSDOF 3
ENDMDL
