MODEL 1
REMARK VINA RESULT:    -7.500      0.000      0.000
REMARK INTER + INTRA:         -10.642
REMARK INTER:                  -9.692
REMARK INTRA:                  -0.950
REMARK UNBOUND:                -0.950
REMARK  Name = CNP0056360_1.pdb
REMARK  8 active torsions:
REMARK  status: ('A' for Active; 'I' for Inactive)
REMARK    1  A    between atoms: C1_1  and  C2_2
REMARK    2  A    between atoms: C2_2  and  C17_21
REMARK    3  A    between atoms: N1_3  and  C3_4
REMARK    4  A    between atoms: C3_4  and  C4_5
REMARK    5  A    between atoms: C4_5  and  C5_6
REMARK    6  A    between atoms: C4_5  and  N2_7
REMARK    7  A    between atoms: C6_8  and  C7_9
REMARK    8  A    between atoms: C6_8  and  C8_10
REMARK                            x       y       z     vdW  Elec       q    Type
REMARK                         _______ _______ _______ _____ _____    ______ ____
ROOT
ATOM      1  C4  UNL     1      21.101  39.325  31.468  0.00  0.00    +0.000 C 
ATOM      2  C5  UNL     1      20.835  37.895  30.990  0.00  0.00    +0.000 C 
ENDROOT
BRANCH   1   3
ATOM      3  N2  UNL     1      20.879  39.376  32.915  0.00  0.00    +0.000 NA
ATOM      4  C6  UNL     1      19.754  39.575  33.548  0.00  0.00    +0.000 C 
ATOM      5  C7  UNL     1      18.451  39.802  32.816  0.00  0.00    +0.000 C 
BRANCH   4   6
ATOM      6  C8  UNL     1      19.781  39.650  35.034  0.00  0.00    +0.000 A 
ATOM      7  C9  UNL     1      19.489  38.516  35.808  0.00  0.00    +0.000 A 
ATOM      8  C10 UNL     1      19.502  38.600  37.203  0.00  0.00    +0.000 A 
ATOM      9  C11 UNL     1      19.214  37.488  38.009  0.00  0.00    +0.000 A 
ATOM     10  C12 UNL     1      19.235  37.614  39.401  0.00  0.00    +0.000 A 
ATOM     11  C13 UNL     1      19.541  38.844  39.992  0.00  0.00    +0.000 A 
ATOM     12  C14 UNL     1      19.828  39.956  39.194  0.00  0.00    +0.000 A 
ATOM     13  C15 UNL     1      19.810  39.840  37.799  0.00  0.00    +0.000 A 
ATOM     14  O1  UNL     1      20.081  40.897  37.042  0.00  0.00    +0.000 OA
ATOM     15  C16 UNL     1      20.079  40.854  35.712  0.00  0.00    +0.000 A 
ATOM     16  O2  UNL     1      20.362  41.901  35.070  0.00  0.00    +0.000 OA
ENDBRANCH   4   6
ENDBRANCH   1   3
BRANCH   1  17
ATOM     17  C3  UNL     1      22.546  39.749  31.138  0.00  0.00    +0.000 C 
BRANCH  17  20
ATOM     18  C1  UNL     1      24.574  41.633  29.980  0.00  0.00    +0.000 C 
ATOM     19  C2  UNL     1      23.718  41.940  31.185  0.00  0.00    +0.000 C 
ATOM     20  N1  UNL     1      22.840  41.092  31.645  0.00  0.00    +0.000 NA
BRANCH  19  21
ATOM     21  C17 UNL     1      23.873  43.237  31.892  0.00  0.00    +0.000 A 
ATOM     22  C18 UNL     1      24.814  43.354  32.927  0.00  0.00    +0.000 A 
ATOM     23  C19 UNL     1      24.964  44.568  33.601  0.00  0.00    +0.000 A 
ATOM     24  C20 UNL     1      25.885  44.718  34.648  0.00  0.00    +0.000 A 
ATOM     25  C21 UNL     1      26.002  45.949  35.301  0.00  0.00    +0.000 A 
ATOM     26  C22 UNL     1      25.203  47.031  34.913  0.00  0.00    +0.000 A 
ATOM     27  C23 UNL     1      24.283  46.885  33.870  0.00  0.00    +0.000 A 
ATOM     28  C24 UNL     1      24.158  45.658  33.210  0.00  0.00    +0.000 A 
ATOM     29  O3  UNL     1      23.287  45.523  32.217  0.00  0.00    +0.000 OA
ATOM     30  C25 UNL     1      23.119  44.383  31.552  0.00  0.00    +0.000 A 
ATOM     31  O4  UNL     1      22.294  44.352  30.601  0.00  0.00    +0.000 OA
ENDBRANCH  19  21
ENDBRANCH  17  20
ENDBRANCH   1  17
TORSDOF 5
ENDMDL
MODEL 2
REMARK VINA RESULT:    -7.486      5.856      8.413
REMARK INTER + INTRA:         -10.624
REMARK INTER:                  -8.866
REMARK INTRA:                  -1.758
REMARK UNBOUND:                -0.950
REMARK  Name = CNP0056360_1.pdb
REMARK  8 active torsions:
REMARK  status: ('A' for Active; 'I' for Inactive)
REMARK    1  A    between atoms: C1_1  and  C2_2
REMARK    2  A    between atoms: C2_2  and  C17_21
REMARK    3  A    between atoms: N1_3  and  C3_4
REMARK    4  A    between atoms: C3_4  and  C4_5
REMARK    5  A    between atoms: C4_5  and  C5_6
REMARK    6  A    between atoms: C4_5  and  N2_7
REMARK    7  A    between atoms: C6_8  and  C7_9
REMARK    8  A    between atoms: C6_8  and  C8_10
REMARK                            x       y       z     vdW  Elec       q    Type
REMARK                         _______ _______ _______ _____ _____    ______ ____
ROOT
ATOM      1  C4  UNL     1      18.765  32.652  34.615  0.00  0.00    +0.000 C 
ATOM      2  C5  UNL     1      17.558  31.769  34.942  0.00  0.00    +0.000 C 
ENDROOT
BRANCH   1   3
ATOM      3  N2  UNL     1      18.288  34.017  34.379  0.00  0.00    +0.000 NA
ATOM      4  C6  UNL     1      18.152  34.632  33.235  0.00  0.00    +0.000 C 
ATOM      5  C7  UNL     1      18.501  33.971  31.921  0.00  0.00    +0.000 C 
BRANCH   4   6
ATOM      6  C8  UNL     1      17.706  36.052  33.243  0.00  0.00    +0.000 A 
ATOM      7  C9  UNL     1      18.594  37.073  33.618  0.00  0.00    +0.000 A 
ATOM      8  C10 UNL     1      18.162  38.401  33.638  0.00  0.00    +0.000 A 
ATOM      9  C11 UNL     1      19.020  39.448  34.009  0.00  0.00    +0.000 A 
ATOM     10  C12 UNL     1      18.549  40.765  34.017  0.00  0.00    +0.000 A 
ATOM     11  C13 UNL     1      17.225  41.040  33.659  0.00  0.00    +0.000 A 
ATOM     12  C14 UNL     1      16.366  40.001  33.289  0.00  0.00    +0.000 A 
ATOM     13  C15 UNL     1      16.828  38.680  33.277  0.00  0.00    +0.000 A 
ATOM     14  O1  UNL     1      16.009  37.694  32.927  0.00  0.00    +0.000 OA
ATOM     15  C16 UNL     1      16.386  36.419  32.896  0.00  0.00    +0.000 A 
ATOM     16  O2  UNL     1      15.549  35.548  32.538  0.00  0.00    +0.000 OA
ENDBRANCH   4   6
ENDBRANCH   1   3
BRANCH   1  17
ATOM     17  C3  UNL     1      19.779  32.638  35.776  0.00  0.00    +0.000 C 
BRANCH  17  20
ATOM     18  C1  UNL     1      22.139  33.904  37.130  0.00  0.00    +0.000 C 
ATOM     19  C2  UNL     1      20.742  34.477  37.143  0.00  0.00    +0.000 C 
ATOM     20  N1  UNL     1      19.749  33.894  36.530  0.00  0.00    +0.000 NA
BRANCH  19  21
ATOM     21  C17 UNL     1      20.464  35.734  37.885  0.00  0.00    +0.000 A 
ATOM     22  C18 UNL     1      20.368  36.945  37.183  0.00  0.00    +0.000 A 
ATOM     23  C19 UNL     1      20.112  38.133  37.872  0.00  0.00    +0.000 A 
ATOM     24  C20 UNL     1      20.021  39.364  37.206  0.00  0.00    +0.000 A 
ATOM     25  C21 UNL     1      19.768  40.531  37.932  0.00  0.00    +0.000 A 
ATOM     26  C22 UNL     1      19.605  40.475  39.321  0.00  0.00    +0.000 A 
ATOM     27  C23 UNL     1      19.695  39.250  39.989  0.00  0.00    +0.000 A 
ATOM     28  C24 UNL     1      19.948  38.076  39.272  0.00  0.00    +0.000 A 
ATOM     29  O3  UNL     1      20.028  36.913  39.908  0.00  0.00    +0.000 OA
ATOM     30  C25 UNL     1      20.269  35.762  39.284  0.00  0.00    +0.000 A 
ATOM     31  O4  UNL     1      20.297  34.700  39.961  0.00  0.00    +0.000 OA
ENDBRANCH  19  21
ENDBRANCH  17  20
ENDBRANCH   1  17
TORSDOF 5
ENDMDL
MODEL 3
REMARK VINA RESULT:    -7.446      4.843      8.433
REMARK INTER + INTRA:         -10.573
REMARK INTER:                  -8.552
REMARK INTRA:                  -2.021
REMARK UNBOUND:                -0.950
REMARK  Name = CNP0056360_1.pdb
REMARK  8 active torsions:
REMARK  status: ('A' for Active; 'I' for Inactive)
REMARK    1  A    between atoms: C1_1  and  C2_2
REMARK    2  A    between atoms: C2_2  and  C17_21
REMARK    3  A    between atoms: N1_3  and  C3_4
REMARK    4  A    between atoms: C3_4  and  C4_5
REMARK    5  A    between atoms: C4_5  and  C5_6
REMARK    6  A    between atoms: C4_5  and  N2_7
REMARK    7  A    between atoms: C6_8  and  C7_9
REMARK    8  A    between atoms: C6_8  and  C8_10
REMARK                            x       y       z     vdW  Elec       q    Type
REMARK                         _______ _______ _______ _____ _____    ______ ____
ROOT
ATOM      1  C4  UNL     1      17.195  37.551  32.249  0.00  0.00    +0.000 C 
ATOM      2  C5  UNL     1      16.065  38.434  31.712  0.00  0.00    +0.000 C 
ENDROOT
BRANCH   1   3
ATOM      3  N2  UNL     1      17.692  38.143  33.493  0.00  0.00    +0.000 NA
ATOM      4  C6  UNL     1      18.924  38.452  33.799  0.00  0.00    +0.000 C 
ATOM      5  C7  UNL     1      20.071  38.213  32.845  0.00  0.00    +0.000 C 
BRANCH   4   6
ATOM      6  C8  UNL     1      19.203  38.989  35.158  0.00  0.00    +0.000 A 
ATOM      7  C9  UNL     1      19.109  38.155  36.284  0.00  0.00    +0.000 A 
ATOM      8  C10 UNL     1      19.357  38.672  37.558  0.00  0.00    +0.000 A 
ATOM      9  C11 UNL     1      19.270  37.870  38.706  0.00  0.00    +0.000 A 
ATOM     10  C12 UNL     1      19.525  38.424  39.964  0.00  0.00    +0.000 A 
ATOM     11  C13 UNL     1      19.864  39.777  40.081  0.00  0.00    +0.000 A 
ATOM     12  C14 UNL     1      19.951  40.581  38.940  0.00  0.00    +0.000 A 
ATOM     13  C15 UNL     1      19.698  40.035  37.677  0.00  0.00    +0.000 A 
ATOM     14  O1  UNL     1      19.779  40.800  36.594  0.00  0.00    +0.000 OA
ATOM     15  C16 UNL     1      19.550  40.343  35.366  0.00  0.00    +0.000 A 
ATOM     16  O2  UNL     1      19.664  41.135  34.393  0.00  0.00    +0.000 OA
ENDBRANCH   4   6
ENDBRANCH   1   3
BRANCH   1  17
ATOM     17  C3  UNL     1      16.689  36.118  32.508  0.00  0.00    +0.000 C 
BRANCH  17  20
ATOM     18  C1  UNL     1      19.068  34.314  32.210  0.00  0.00    +0.000 C 
ATOM     19  C2  UNL     1      18.443  34.686  33.533  0.00  0.00    +0.000 C 
ATOM     20  N1  UNL     1      17.415  35.485  33.612  0.00  0.00    +0.000 NA
BRANCH  19  21
ATOM     21  C17 UNL     1      18.993  34.126  34.794  0.00  0.00    +0.000 A 
ATOM     22  C18 UNL     1      19.865  34.901  35.574  0.00  0.00    +0.000 A 
ATOM     23  C19 UNL     1      20.390  34.381  36.759  0.00  0.00    +0.000 A 
ATOM     24  C20 UNL     1      21.274  35.121  37.558  0.00  0.00    +0.000 A 
ATOM     25  C21 UNL     1      21.782  34.563  38.736  0.00  0.00    +0.000 A 
ATOM     26  C22 UNL     1      21.410  33.269  39.119  0.00  0.00    +0.000 A 
ATOM     27  C23 UNL     1      20.529  32.528  38.325  0.00  0.00    +0.000 A 
ATOM     28  C24 UNL     1      20.015  33.077  37.145  0.00  0.00    +0.000 A 
ATOM     29  O3  UNL     1      19.175  32.372  36.396  0.00  0.00    +0.000 OA
ATOM     30  C25 UNL     1      18.655  32.837  35.262  0.00  0.00    +0.000 A 
ATOM     31  O4  UNL     1      17.840  32.114  34.630  0.00  0.00    +0.000 OA
ENDBRANCH  19  21
ENDBRANCH  17  20
ENDBRANCH   1  17
TORSDOF 5
ENDMDL
MODEL 4
REMARK VINA RESULT:    -7.297      2.081      8.342
REMARK INTER + INTRA:         -10.380
REMARK INTER:                  -9.264
REMARK INTRA:                  -1.117
REMARK UNBOUND:                -0.950
REMARK  Name = CNP0056360_1.pdb
REMARK  8 active torsions:
REMARK  status: ('A' for Active; 'I' for Inactive)
REMARK    1  A    between atoms: C1_1  and  C2_2
REMARK    2  A    between atoms: C2_2  and  C17_21
REMARK    3  A    between atoms: N1_3  and  C3_4
REMARK    4  A    between atoms: C3_4  and  C4_5
REMARK    5  A    between atoms: C4_5  and  C5_6
REMARK    6  A    between atoms: C4_5  and  N2_7
REMARK    7  A    between atoms: C6_8  and  C7_9
REMARK    8  A    between atoms: C6_8  and  C8_10
REMARK                            x       y       z     vdW  Elec       q    Type
REMARK                         _______ _______ _______ _____ _____    ______ ____
ROOT
ATOM      1  C4  UNL     1      19.185  43.526  32.328  0.00  0.00    +0.000 C 
ATOM      2  C5  UNL     1      18.229  43.767  33.499  0.00  0.00    +0.000 C 
ENDROOT
BRANCH   1   3
ATOM      3  N2  UNL     1      20.481  44.124  32.661  0.00  0.00    +0.000 NA
ATOM      4  C6  UNL     1      21.336  44.687  31.850  0.00  0.00    +0.000 C 
ATOM      5  C7  UNL     1      21.084  44.793  30.364  0.00  0.00    +0.000 C 
BRANCH   4   6
ATOM      6  C8  UNL     1      22.628  45.171  32.409  0.00  0.00    +0.000 A 
ATOM      7  C9  UNL     1      22.740  46.477  32.912  0.00  0.00    +0.000 A 
ATOM      8  C10 UNL     1      23.961  46.928  33.421  0.00  0.00    +0.000 A 
ATOM      9  C11 UNL     1      24.110  48.227  33.929  0.00  0.00    +0.000 A 
ATOM     10  C12 UNL     1      25.349  48.641  34.428  0.00  0.00    +0.000 A 
ATOM     11  C13 UNL     1      26.440  47.764  34.419  0.00  0.00    +0.000 A 
ATOM     12  C14 UNL     1      26.296  46.469  33.912  0.00  0.00    +0.000 A 
ATOM     13  C15 UNL     1      25.060  46.045  33.411  0.00  0.00    +0.000 A 
ATOM     14  O1  UNL     1      24.926  44.815  32.928  0.00  0.00    +0.000 OA
ATOM     15  C16 UNL     1      23.780  44.352  32.437  0.00  0.00    +0.000 A 
ATOM     16  O2  UNL     1      23.736  43.167  32.012  0.00  0.00    +0.000 OA
ENDBRANCH   4   6
ENDBRANCH   1   3
BRANCH   1  17
ATOM     17  C3  UNL     1      19.350  42.017  32.062  0.00  0.00    +0.000 C 
BRANCH  17  20
ATOM     18  C1  UNL     1      21.725  40.747  33.384  0.00  0.00    +0.000 C 
ATOM     19  C2  UNL     1      20.313  40.666  33.912  0.00  0.00    +0.000 C 
ATOM     20  N1  UNL     1      19.313  41.245  33.306  0.00  0.00    +0.000 NA
BRANCH  19  21
ATOM     21  C17 UNL     1      20.029  39.895  35.150  0.00  0.00    +0.000 A 
ATOM     22  C18 UNL     1      20.174  40.516  36.400  0.00  0.00    +0.000 A 
ATOM     23  C19 UNL     1      19.914  39.798  37.570  0.00  0.00    +0.000 A 
ATOM     24  C20 UNL     1      20.060  40.380  38.837  0.00  0.00    +0.000 A 
ATOM     25  C21 UNL     1      19.794  39.627  39.985  0.00  0.00    +0.000 A 
ATOM     26  C22 UNL     1      19.382  38.295  39.872  0.00  0.00    +0.000 A 
ATOM     27  C23 UNL     1      19.235  37.710  38.610  0.00  0.00    +0.000 A 
ATOM     28  C24 UNL     1      19.499  38.455  37.456  0.00  0.00    +0.000 A 
ATOM     29  O3  UNL     1      19.354  37.898  36.259  0.00  0.00    +0.000 OA
ATOM     30  C25 UNL     1      19.592  38.552  35.124  0.00  0.00    +0.000 A 
ATOM     31  O4  UNL     1      19.398  37.958  34.031  0.00  0.00    +0.000 OA
ENDBRANCH  19  21
ENDBRANCH  17  20
ENDBRANCH   1  17
TORSDOF 5
ENDMDL
MODEL 5
REMARK VINA RESULT:    -7.286      6.330      9.390
REMARK INTER + INTRA:         -10.365
REMARK INTER:                  -9.492
REMARK INTRA:                  -0.874
REMARK UNBOUND:                -0.950
REMARK  Name = CNP0056360_1.pdb
REMARK  8 active torsions:
REMARK  status: ('A' for Active; 'I' for Inactive)
REMARK    1  A    between atoms: C1_1  and  C2_2
REMARK    2  A    between atoms: C2_2  and  C17_21
REMARK    3  A    between atoms: N1_3  and  C3_4
REMARK    4  A    between atoms: C3_4  and  C4_5
REMARK    5  A    between atoms: C4_5  and  C5_6
REMARK    6  A    between atoms: C4_5  and  N2_7
REMARK    7  A    between atoms: C6_8  and  C7_9
REMARK    8  A    between atoms: C6_8  and  C8_10
REMARK                            x       y       z     vdW  Elec       q    Type
REMARK                         _______ _______ _______ _____ _____    ______ ____
ROOT
ATOM      1  C4  UNL     1      23.997  35.322  37.985  0.00  0.00    +0.000 C 
ATOM      2  C5  UNL     1      24.001  35.788  36.526  0.00  0.00    +0.000 C 
ENDROOT
BRANCH   1   3
ATOM      3  N2  UNL     1      25.100  35.988  38.684  0.00  0.00    +0.000 NA
ATOM      4  C6  UNL     1      26.242  35.473  39.055  0.00  0.00    +0.000 C 
ATOM      5  C7  UNL     1      26.589  34.025  38.800  0.00  0.00    +0.000 C 
BRANCH   4   6
ATOM      6  C8  UNL     1      27.191  36.331  39.815  0.00  0.00    +0.000 A 
ATOM      7  C9  UNL     1      28.124  37.132  39.138  0.00  0.00    +0.000 A 
ATOM      8  C10 UNL     1      29.021  37.922  39.860  0.00  0.00    +0.000 A 
ATOM      9  C11 UNL     1      29.969  38.733  39.217  0.00  0.00    +0.000 A 
ATOM     10  C12 UNL     1      30.851  39.508  39.976  0.00  0.00    +0.000 A 
ATOM     11  C13 UNL     1      30.793  39.475  41.374  0.00  0.00    +0.000 A 
ATOM     12  C14 UNL     1      29.851  38.668  42.019  0.00  0.00    +0.000 A 
ATOM     13  C15 UNL     1      28.964  37.888  41.268  0.00  0.00    +0.000 A 
ATOM     14  O1  UNL     1      28.071  37.120  41.883  0.00  0.00    +0.000 OA
ATOM     15  C16 UNL     1      27.201  36.356  41.228  0.00  0.00    +0.000 A 
ATOM     16  O2  UNL     1      26.378  35.670  41.890  0.00  0.00    +0.000 OA
ENDBRANCH   4   6
ENDBRANCH   1   3
BRANCH   1  17
ATOM     17  C3  UNL     1      22.656  35.666  38.662  0.00  0.00    +0.000 C 
BRANCH  17  20
ATOM     18  C1  UNL     1      19.978  36.788  39.416  0.00  0.00    +0.000 C 
ATOM     19  C2  UNL     1      20.834  37.314  38.288  0.00  0.00    +0.000 C 
ATOM     20  N1  UNL     1      21.998  36.798  38.005  0.00  0.00    +0.000 NA
BRANCH  19  21
ATOM     21  C17 UNL     1      20.347  38.442  37.453  0.00  0.00    +0.000 A 
ATOM     22  C18 UNL     1      19.572  38.177  36.314  0.00  0.00    +0.000 A 
ATOM     23  C19 UNL     1      19.114  39.231  35.520  0.00  0.00    +0.000 A 
ATOM     24  C20 UNL     1      18.348  39.004  34.368  0.00  0.00    +0.000 A 
ATOM     25  C21 UNL     1      17.912  40.086  33.597  0.00  0.00    +0.000 A 
ATOM     26  C22 UNL     1      18.238  41.394  33.971  0.00  0.00    +0.000 A 
ATOM     27  C23 UNL     1      19.003  41.625  35.120  0.00  0.00    +0.000 A 
ATOM     28  C24 UNL     1      19.444  40.549  35.898  0.00  0.00    +0.000 A 
ATOM     29  O3  UNL     1      20.165  40.772  36.991  0.00  0.00    +0.000 OA
ATOM     30  C25 UNL     1      20.616  39.792  37.771  0.00  0.00    +0.000 A 
ATOM     31  O4  UNL     1      21.266  40.094  38.807  0.00  0.00    +0.000 OA
ENDBRANCH  19  21
ENDBRANCH  17  20
ENDBRANCH   1  17
TORSDOF 5
ENDMDL
MODEL 6
REMARK VINA RESULT:    -7.153      5.577      7.942
REMARK INTER + INTRA:         -10.194
REMARK INTER:                  -8.831
REMARK INTRA:                  -1.363
REMARK UNBOUND:                -0.950
REMARK  Name = CNP0056360_1.pdb
REMARK  8 active torsions:
REMARK  status: ('A' for Active; 'I' for Inactive)
REMARK    1  A    between atoms: C1_1  and  C2_2
REMARK    2  A    between atoms: C2_2  and  C17_21
REMARK    3  A    between atoms: N1_3  and  C3_4
REMARK    4  A    between atoms: C3_4  and  C4_5
REMARK    5  A    between atoms: C4_5  and  C5_6
REMARK    6  A    between atoms: C4_5  and  N2_7
REMARK    7  A    between atoms: C6_8  and  C7_9
REMARK    8  A    between atoms: C6_8  and  C8_10
REMARK                            x       y       z     vdW  Elec       q    Type
REMARK                         _______ _______ _______ _____ _____    ______ ____
ROOT
ATOM      1  C4  UNL     1      18.938  33.341  33.084  0.00  0.00    +0.000 C 
ATOM      2  C5  UNL     1      20.074  32.773  32.231  0.00  0.00    +0.000 C 
ENDROOT
BRANCH   1   3
ATOM      3  N2  UNL     1      19.356  33.309  34.489  0.00  0.00    +0.000 NA
ATOM      4  C6  UNL     1      18.847  32.601  35.461  0.00  0.00    +0.000 C 
ATOM      5  C7  UNL     1      17.678  31.668  35.248  0.00  0.00    +0.000 C 
BRANCH   4   6
ATOM      6  C8  UNL     1      19.398  32.782  36.832  0.00  0.00    +0.000 A 
ATOM      7  C9  UNL     1      20.240  33.867  37.122  0.00  0.00    +0.000 A 
ATOM      8  C10 UNL     1      20.765  34.020  38.407  0.00  0.00    +0.000 A 
ATOM      9  C11 UNL     1      21.612  35.090  38.733  0.00  0.00    +0.000 A 
ATOM     10  C12 UNL     1      22.119  35.207  40.031  0.00  0.00    +0.000 A 
ATOM     11  C13 UNL     1      21.785  34.259  41.004  0.00  0.00    +0.000 A 
ATOM     12  C14 UNL     1      20.943  33.190  40.685  0.00  0.00    +0.000 A 
ATOM     13  C15 UNL     1      20.430  33.064  39.388  0.00  0.00    +0.000 A 
ATOM     14  O1  UNL     1      19.632  32.047  39.086  0.00  0.00    +0.000 OA
ATOM     15  C16 UNL     1      19.113  31.870  37.874  0.00  0.00    +0.000 A 
ATOM     16  O2  UNL     1      18.352  30.886  37.677  0.00  0.00    +0.000 OA
ENDBRANCH   4   6
ENDBRANCH   1   3
BRANCH   1  17
ATOM     17  C3  UNL     1      18.609  34.786  32.661  0.00  0.00    +0.000 C 
BRANCH  17  20
ATOM     18  C1  UNL     1      16.773  36.948  33.639  0.00  0.00    +0.000 C 
ATOM     19  C2  UNL     1      18.161  36.702  34.179  0.00  0.00    +0.000 C 
ATOM     20  N1  UNL     1      18.919  35.741  33.729  0.00  0.00    +0.000 NA
BRANCH  19  21
ATOM     21  C17 UNL     1      18.706  37.579  35.247  0.00  0.00    +0.000 A 
ATOM     22  C18 UNL     1      18.629  37.169  36.587  0.00  0.00    +0.000 A 
ATOM     23  C19 UNL     1      19.134  37.990  37.598  0.00  0.00    +0.000 A 
ATOM     24  C20 UNL     1      19.064  37.619  38.949  0.00  0.00    +0.000 A 
ATOM     25  C21 UNL     1      19.577  38.470  39.932  0.00  0.00    +0.000 A 
ATOM     26  C22 UNL     1      20.161  39.690  39.573  0.00  0.00    +0.000 A 
ATOM     27  C23 UNL     1      20.233  40.064  38.227  0.00  0.00    +0.000 A 
ATOM     28  C24 UNL     1      19.722  39.219  37.235  0.00  0.00    +0.000 A 
ATOM     29  O3  UNL     1      19.796  39.575  35.958  0.00  0.00    +0.000 OA
ATOM     30  C25 UNL     1      19.326  38.818  34.969  0.00  0.00    +0.000 A 
ATOM     31  O4  UNL     1      19.467  39.216  33.782  0.00  0.00    +0.000 OA
ENDBRANCH  19  21
ENDBRANCH  17  20
ENDBRANCH   1  17
TORSDOF 5
ENDMDL
MODEL 7
REMARK VINA RESULT:    -7.152      1.113      7.718
REMARK INTER + INTRA:         -10.192
REMARK INTER:                  -9.558
REMARK INTRA:                  -0.634
REMARK UNBOUND:                -0.950
REMARK  Name = CNP0056360_1.pdb
REMARK  8 active torsions:
REMARK  status: ('A' for Active; 'I' for Inactive)
REMARK    1  A    between atoms: C1_1  and  C2_2
REMARK    2  A    between atoms: C2_2  and  C17_21
REMARK    3  A    between atoms: N1_3  and  C3_4
REMARK    4  A    between atoms: C3_4  and  C4_5
REMARK    5  A    between atoms: C4_5  and  C5_6
REMARK    6  A    between atoms: C4_5  and  N2_7
REMARK    7  A    between atoms: C6_8  and  C7_9
REMARK    8  A    between atoms: C6_8  and  C8_10
REMARK                            x       y       z     vdW  Elec       q    Type
REMARK                         _______ _______ _______ _____ _____    ______ ____
ROOT
ATOM      1  C4  UNL     1      19.871  41.294  30.747  0.00  0.00    +0.000 C 
ATOM      2  C5  UNL     1      18.443  41.708  31.109  0.00  0.00    +0.000 C 
ENDROOT
BRANCH   1   3
ATOM      3  N2  UNL     1      20.788  42.326  31.239  0.00  0.00    +0.000 NA
ATOM      4  C6  UNL     1      21.969  42.638  30.775  0.00  0.00    +0.000 C 
ATOM      5  C7  UNL     1      22.582  41.920  29.595  0.00  0.00    +0.000 C 
BRANCH   4   6
ATOM      6  C8  UNL     1      22.753  43.686  31.483  0.00  0.00    +0.000 A 
ATOM      7  C9  UNL     1      23.773  43.327  32.378  0.00  0.00    +0.000 A 
ATOM      8  C10 UNL     1      24.494  44.318  33.049  0.00  0.00    +0.000 A 
ATOM      9  C11 UNL     1      25.518  43.996  33.953  0.00  0.00    +0.000 A 
ATOM     10  C12 UNL     1      26.216  45.017  34.607  0.00  0.00    +0.000 A 
ATOM     11  C13 UNL     1      25.893  46.357  34.363  0.00  0.00    +0.000 A 
ATOM     12  C14 UNL     1      24.873  46.682  33.464  0.00  0.00    +0.000 A 
ATOM     13  C15 UNL     1      24.169  45.668  32.805  0.00  0.00    +0.000 A 
ATOM     14  O1  UNL     1      23.199  45.979  31.953  0.00  0.00    +0.000 OA
ATOM     15  C16 UNL     1      22.492  45.063  31.296  0.00  0.00    +0.000 A 
ATOM     16  O2  UNL     1      21.599  45.445  30.494  0.00  0.00    +0.000 OA
ENDBRANCH   4   6
ENDBRANCH   1   3
BRANCH   1  17
ATOM     17  C3  UNL     1      20.219  39.931  31.376  0.00  0.00    +0.000 C 
BRANCH  17  20
ATOM     18  C1  UNL     1      18.165  38.639  33.141  0.00  0.00    +0.000 C 
ATOM     19  C2  UNL     1      19.326  39.462  33.647  0.00  0.00    +0.000 C 
ATOM     20  N1  UNL     1      20.201  39.995  32.840  0.00  0.00    +0.000 NA
BRANCH  19  21
ATOM     21  C17 UNL     1      19.486  39.697  35.105  0.00  0.00    +0.000 A 
ATOM     22  C18 UNL     1      19.317  38.630  36.001  0.00  0.00    +0.000 A 
ATOM     23  C19 UNL     1      19.461  38.842  37.374  0.00  0.00    +0.000 A 
ATOM     24  C20 UNL     1      19.287  37.803  38.300  0.00  0.00    +0.000 A 
ATOM     25  C21 UNL     1      19.436  38.057  39.667  0.00  0.00    +0.000 A 
ATOM     26  C22 UNL     1      19.758  39.343  40.114  0.00  0.00    +0.000 A 
ATOM     27  C23 UNL     1      19.933  40.382  39.194  0.00  0.00    +0.000 A 
ATOM     28  C24 UNL     1      19.786  40.139  37.823  0.00  0.00    +0.000 A 
ATOM     29  O3  UNL     1      19.957  41.126  36.952  0.00  0.00    +0.000 OA
ATOM     30  C25 UNL     1      19.828  40.960  35.638  0.00  0.00    +0.000 A 
ATOM     31  O4  UNL     1      20.040  41.943  34.879  0.00  0.00    +0.000 OA
ENDBRANCH  19  21
ENDBRANCH  17  20
ENDBRANCH   1  17
TORSDOF 5
ENDMDL
MODEL 8
REMARK VINA RESULT:    -7.083      4.461      6.900
REMARK INTER + INTRA:         -10.103
REMARK INTER:                  -8.200
REMARK INTRA:                  -1.903
REMARK UNBOUND:                -0.950
REMARK  Name = CNP0056360_1.pdb
REMARK  8 active torsions:
REMARK  status: ('A' for Active; 'I' for Inactive)
REMARK    1  A    between atoms: C1_1  and  C2_2
REMARK    2  A    between atoms: C2_2  and  C17_21
REMARK    3  A    between atoms: N1_3  and  C3_4
REMARK    4  A    between atoms: C3_4  and  C4_5
REMARK    5  A    between atoms: C4_5  and  C5_6
REMARK    6  A    between atoms: C4_5  and  N2_7
REMARK    7  A    between atoms: C6_8  and  C7_9
REMARK    8  A    between atoms: C6_8  and  C8_10
REMARK                            x       y       z     vdW  Elec       q    Type
REMARK                         _______ _______ _______ _____ _____    ______ ____
ROOT
ATOM      1  C4  UNL     1      20.724  35.674  32.408  0.00  0.00    +0.000 C 
ATOM      2  C5  UNL     1      21.474  34.803  31.397  0.00  0.00    +0.000 C 
ENDROOT
BRANCH   1   3
ATOM      3  N2  UNL     1      20.823  35.039  33.726  0.00  0.00    +0.000 NA
ATOM      4  C6  UNL     1      19.856  34.773  34.563  0.00  0.00    +0.000 C 
ATOM      5  C7  UNL     1      18.416  35.118  34.261  0.00  0.00    +0.000 C 
BRANCH   4   6
ATOM      6  C8  UNL     1      20.205  34.178  35.881  0.00  0.00    +0.000 A 
ATOM      7  C9  UNL     1      20.442  35.002  36.993  0.00  0.00    +0.000 A 
ATOM      8  C10 UNL     1      20.784  34.435  38.223  0.00  0.00    +0.000 A 
ATOM      9  C11 UNL     1      21.031  35.227  39.354  0.00  0.00    +0.000 A 
ATOM     10  C12 UNL     1      21.372  34.621  40.567  0.00  0.00    +0.000 A 
ATOM     11  C13 UNL     1      21.470  33.228  40.655  0.00  0.00    +0.000 A 
ATOM     12  C14 UNL     1      21.227  32.434  39.530  0.00  0.00    +0.000 A 
ATOM     13  C15 UNL     1      20.884  33.031  38.311  0.00  0.00    +0.000 A 
ATOM     14  O1  UNL     1      20.655  32.275  37.243  0.00  0.00    +0.000 OA
ATOM     15  C16 UNL     1      20.327  32.781  36.057  0.00  0.00    +0.000 A 
ATOM     16  O2  UNL     1      20.112  31.990  35.100  0.00  0.00    +0.000 OA
ENDBRANCH   4   6
ENDBRANCH   1   3
BRANCH   1  17
ATOM     17  C3  UNL     1      21.326  37.092  32.457  0.00  0.00    +0.000 C 
BRANCH  17  20
ATOM     18  C1  UNL     1      18.991  38.886  33.034  0.00  0.00    +0.000 C 
ATOM     19  C2  UNL     1      20.066  38.540  34.036  0.00  0.00    +0.000 C 
ATOM     20  N1  UNL     1      21.058  37.745  33.741  0.00  0.00    +0.000 NA
BRANCH  19  21
ATOM     21  C17 UNL     1      20.021  39.123  35.401  0.00  0.00    +0.000 A 
ATOM     22  C18 UNL     1      19.681  38.308  36.492  0.00  0.00    +0.000 A 
ATOM     23  C19 UNL     1      19.631  38.849  37.779  0.00  0.00    +0.000 A 
ATOM     24  C20 UNL     1      19.282  38.068  38.891  0.00  0.00    +0.000 A 
ATOM     25  C21 UNL     1      19.240  38.648  40.162  0.00  0.00    +0.000 A 
ATOM     26  C22 UNL     1      19.543  40.004  40.329  0.00  0.00    +0.000 A 
ATOM     27  C23 UNL     1      19.891  40.786  39.223  0.00  0.00    +0.000 A 
ATOM     28  C24 UNL     1      19.937  40.216  37.946  0.00  0.00    +0.000 A 
ATOM     29  O3  UNL     1      20.271  40.959  36.898  0.00  0.00    +0.000 OA
ATOM     30  C25 UNL     1      20.330  40.477  35.659  0.00  0.00    +0.000 A 
ATOM     31  O4  UNL     1      20.689  41.245  34.727  0.00  0.00    +0.000 OA
ENDBRANCH  19  21
ENDBRANCH  17  20
ENDBRANCH   1  17
TORSDOF 5
ENDMDL
MODEL 9
REMARK VINA RESULT:    -7.008      7.450     11.304
REMARK INTER + INTRA:         -10.007
REMARK INTER:                  -9.058
REMARK INTRA:                  -0.949
REMARK UNBOUND:                -0.950
REMARK  Name = CNP0056360_1.pdb
REMARK  8 active torsions:
REMARK  status: ('A' for Active; 'I' for Inactive)
REMARK    1  A    between atoms: C1_1  and  C2_2
REMARK    2  A    between atoms: C2_2  and  C17_21
REMARK    3  A    between atoms: N1_3  and  C3_4
REMARK    4  A    between atoms: C3_4  and  C4_5
REMARK    5  A    between atoms: C4_5  and  C5_6
REMARK    6  A    between atoms: C4_5  and  N2_7
REMARK    7  A    between atoms: C6_8  and  C7_9
REMARK    8  A    between atoms: C6_8  and  C8_10
REMARK                            x       y       z     vdW  Elec       q    Type
REMARK                         _______ _______ _______ _____ _____    ______ ____
ROOT
ATOM      1  C4  UNL     1      25.751  32.773  41.670  0.00  0.00    +0.000 C 
ATOM      2  C5  UNL     1      26.688  31.648  42.114  0.00  0.00    +0.000 C 
ENDROOT
BRANCH   1   3
ATOM      3  N2  UNL     1      26.568  33.917  41.256  0.00  0.00    +0.000 NA
ATOM      4  C6  UNL     1      26.464  35.160  41.644  0.00  0.00    +0.000 C 
ATOM      5  C7  UNL     1      25.410  35.607  42.630  0.00  0.00    +0.000 C 
BRANCH   4   6
ATOM      6  C8  UNL     1      27.370  36.170  41.034  0.00  0.00    +0.000 A 
ATOM      7  C9  UNL     1      28.325  36.835  41.820  0.00  0.00    +0.000 A 
ATOM      8  C10 UNL     1      29.162  37.793  41.242  0.00  0.00    +0.000 A 
ATOM      9  C11 UNL     1      30.125  38.478  41.997  0.00  0.00    +0.000 A 
ATOM     10  C12 UNL     1      30.943  39.432  41.382  0.00  0.00    +0.000 A 
ATOM     11  C13 UNL     1      30.800  39.705  40.017  0.00  0.00    +0.000 A 
ATOM     12  C14 UNL     1      29.841  39.025  39.261  0.00  0.00    +0.000 A 
ATOM     13  C15 UNL     1      29.018  38.069  39.867  0.00  0.00    +0.000 A 
ATOM     14  O1  UNL     1      28.106  37.426  39.148  0.00  0.00    +0.000 OA
ATOM     15  C16 UNL     1      27.293  36.508  39.664  0.00  0.00    +0.000 A 
ATOM     16  O2  UNL     1      26.466  35.934  38.906  0.00  0.00    +0.000 OA
ENDBRANCH   4   6
ENDBRANCH   1   3
BRANCH   1  17
ATOM     17  C3  UNL     1      24.858  32.309  40.503  0.00  0.00    +0.000 C 
BRANCH  17  20
ATOM     18  C1  UNL     1      23.509  32.714  37.853  0.00  0.00    +0.000 C 
ATOM     19  C2  UNL     1      23.171  33.484  39.107  0.00  0.00    +0.000 C 
ATOM     20  N1  UNL     1      23.779  33.264  40.240  0.00  0.00    +0.000 NA
BRANCH  19  21
ATOM     21  C17 UNL     1      22.126  34.540  39.067  0.00  0.00    +0.000 A 
ATOM     22  C18 UNL     1      22.410  35.773  38.459  0.00  0.00    +0.000 A 
ATOM     23  C19 UNL     1      21.436  36.773  38.422  0.00  0.00    +0.000 A 
ATOM     24  C20 UNL     1      21.688  38.021  37.834  0.00  0.00    +0.000 A 
ATOM     25  C21 UNL     1      20.688  38.999  37.821  0.00  0.00    +0.000 A 
ATOM     26  C22 UNL     1      19.438  38.735  38.391  0.00  0.00    +0.000 A 
ATOM     27  C23 UNL     1      19.183  37.492  38.979  0.00  0.00    +0.000 A 
ATOM     28  C24 UNL     1      20.177  36.507  38.998  0.00  0.00    +0.000 A 
ATOM     29  O3  UNL     1      19.930  35.326  39.552  0.00  0.00    +0.000 OA
ATOM     30  C25 UNL     1      20.834  34.350  39.605  0.00  0.00    +0.000 A 
ATOM     31  O4  UNL     1      20.505  33.248  40.120  0.00  0.00    +0.000 OA
ENDBRANCH  19  21
ENDBRANCH  17  20
ENDBRANCH   1  17
TORSDOF 5
ENDMDL
MODEL 10
REMARK VINA RESULT:    -6.960      2.571      9.418
REMARK INTER + INTRA:          -9.944
REMARK INTER:                  -9.148
REMARK INTRA:                  -0.796
REMARK UNBOUND:                -0.950
REMARK  Name = CNP0056360_1.pdb
REMARK  8 active torsions:
REMARK  status: ('A' for Active; 'I' for Inactive)
REMARK    1  A    between atoms: C1_1  and  C2_2
REMARK    2  A    between atoms: C2_2  and  C17_21
REMARK    3  A    between atoms: N1_3  and  C3_4
REMARK    4  A    between atoms: C3_4  and  C4_5
REMARK    5  A    between atoms: C4_5  and  C5_6
REMARK    6  A    between atoms: C4_5  and  N2_7
REMARK    7  A    between atoms: C6_8  and  C7_9
REMARK    8  A    between atoms: C6_8  and  C8_10
REMARK                            x       y       z     vdW  Elec       q    Type
REMARK                         _______ _______ _______ _____ _____    ______ ____
ROOT
ATOM      1  C4  UNL     1      23.613  43.364  32.490  0.00  0.00    +0.000 C 
ATOM      2  C5  UNL     1      24.289  42.860  31.212  0.00  0.00    +0.000 C 
ENDROOT
BRANCH   1   3
ATOM      3  N2  UNL     1      24.064  44.735  32.740  0.00  0.00    +0.000 NA
ATOM      4  C6  UNL     1      24.997  45.135  33.562  0.00  0.00    +0.000 C 
ATOM      5  C7  UNL     1      25.776  44.168  34.423  0.00  0.00    +0.000 C 
BRANCH   4   6
ATOM      6  C8  UNL     1      25.241  46.597  33.699  0.00  0.00    +0.000 A 
ATOM      7  C9  UNL     1      26.163  47.245  32.862  0.00  0.00    +0.000 A 
ATOM      8  C10 UNL     1      26.397  48.614  33.008  0.00  0.00    +0.000 A 
ATOM      9  C11 UNL     1      27.313  49.294  32.191  0.00  0.00    +0.000 A 
ATOM     10  C12 UNL     1      27.520  50.666  32.369  0.00  0.00    +0.000 A 
ATOM     11  C13 UNL     1      26.818  51.360  33.361  0.00  0.00    +0.000 A 
ATOM     12  C14 UNL     1      25.905  50.687  34.179  0.00  0.00    +0.000 A 
ATOM     13  C15 UNL     1      25.691  49.314  34.007  0.00  0.00    +0.000 A 
ATOM     14  O1  UNL     1      24.825  48.676  34.786  0.00  0.00    +0.000 OA
ATOM     15  C16 UNL     1      24.576  47.373  34.675  0.00  0.00    +0.000 A 
ATOM     16  O2  UNL     1      23.727  46.850  35.445  0.00  0.00    +0.000 OA
ENDBRANCH   4   6
ENDBRANCH   1   3
BRANCH   1  17
ATOM     17  C3  UNL     1      22.079  43.328  32.344  0.00  0.00    +0.000 C 
BRANCH  17  20
ATOM     18  C1  UNL     1      19.316  43.342  33.514  0.00  0.00    +0.000 C 
ATOM     19  C2  UNL     1      20.301  42.209  33.671  0.00  0.00    +0.000 C 
ATOM     20  N1  UNL     1      21.489  42.244  33.134  0.00  0.00    +0.000 NA
BRANCH  19  21
ATOM     21  C17 UNL     1      19.932  41.013  34.472  0.00  0.00    +0.000 A 
ATOM     22  C18 UNL     1      20.121  41.025  35.863  0.00  0.00    +0.000 A 
ATOM     23  C19 UNL     1      19.782  39.904  36.623  0.00  0.00    +0.000 A 
ATOM     24  C20 UNL     1      19.967  39.875  38.013  0.00  0.00    +0.000 A 
ATOM     25  C21 UNL     1      19.619  38.732  38.738  0.00  0.00    +0.000 A 
ATOM     26  C22 UNL     1      19.086  37.617  38.082  0.00  0.00    +0.000 A 
ATOM     27  C23 UNL     1      18.899  37.641  36.696  0.00  0.00    +0.000 A 
ATOM     28  C24 UNL     1      19.244  38.780  35.961  0.00  0.00    +0.000 A 
ATOM     29  O3  UNL     1      19.062  38.802  34.646  0.00  0.00    +0.000 OA
ATOM     30  C25 UNL     1      19.372  39.853  33.891  0.00  0.00    +0.000 A 
ATOM     31  O4  UNL     1      19.135  39.802  32.655  0.00  0.00    +0.000 OA
ENDBRANCH  19  21
ENDBRANCH  17  20
ENDBRANCH   1  17
TORSDOF 5
ENDMDL
