MODEL 1
REMARK VINA RESULT:    -8.578      0.000      0.000
REMARK INTER + INTRA:         -12.809
REMARK INTER:                 -11.586
REMARK INTRA:                  -1.223
REMARK UNBOUND:                -1.223
REMARK  Name = CNP0112283_1.pdb
REMARK  7 active torsions:
REMARK  status: ('A' for Active; 'I' for Inactive)
REMARK    1  A    between atoms: C1_1  and  C2_2
REMARK    2  A    between atoms: N1_4  and  C3_5
REMARK    3  A    between atoms: C10_12  and  C11_13
REMARK    4  A    between atoms: N2_15  and  C12_16
REMARK    5  A    between atoms: C12_16  and  C13_17
REMARK    6  A    between atoms: C13_17  and  C14_18
REMARK    7  A    between atoms: C15_20  and  C16_21
REMARK                            x       y       z     vdW  Elec       q    Type
REMARK                         _______ _______ _______ _____ _____    ______ ____
ROOT
ATOM      1  C3  UNL     1      59.743  53.651  73.246  0.00  0.00    +0.000 A 
ATOM      2  C4  UNL     1      60.172  52.593  72.436  0.00  0.00    +0.000 A 
ATOM      3  C5  UNL     1      59.523  52.311  71.232  0.00  0.00    +0.000 A 
ATOM      4  C6  UNL     1      58.406  53.066  70.819  0.00  0.00    +0.000 A 
ATOM      5  C7  UNL     1      58.024  54.183  71.606  0.00  0.00    +0.000 A 
ATOM      6  C8  UNL     1      58.664  54.438  72.828  0.00  0.00    +0.000 A 
ATOM      7  C9  UNL     1      56.930  55.111  71.145  0.00  0.00    +0.000 C 
ATOM      8  C10 UNL     1      56.845  55.131  69.611  0.00  0.00    +0.000 C 
ATOM      9  C22 UNL     1      56.629  53.675  69.119  0.00  0.00    +0.000 C 
ATOM     10  C23 UNL     1      56.345  53.513  67.592  0.00  0.00    +0.000 C 
ATOM     11  C24 UNL     1      55.999  52.056  67.303  0.00  0.00    +0.000 C 
ATOM     12  C25 UNL     1      57.211  51.206  67.684  0.00  0.00    +0.000 C 
ATOM     13  C26 UNL     1      57.514  51.339  69.188  0.00  0.00    +0.000 C 
ATOM     14  N5  UNL     1      57.683  52.750  69.592  0.00  0.00    +0.000 N 
ATOM     15  C27 UNL     1      58.437  51.575  66.816  0.00  0.00    +0.000 C 
ATOM     16  N6  UNL     1      58.539  53.010  66.455  0.00  0.00    +0.000 N 
ATOM     17  C28 UNL     1      57.514  53.898  66.710  0.00  0.00    +0.000 A 
ATOM     18  C29 UNL     1      57.531  55.173  66.124  0.00  0.00    +0.000 A 
ATOM     19  C30 UNL     1      58.626  55.577  65.370  0.00  0.00    +0.000 A 
ATOM     20  C31 UNL     1      59.686  54.701  65.177  0.00  0.00    +0.000 A 
ATOM     21  C32 UNL     1      59.623  53.410  65.709  0.00  0.00    +0.000 A 
ATOM     22  O4  UNL     1      60.569  52.609  65.472  0.00  0.00    +0.000 OA
ENDROOT
BRANCH   1  26
ATOM     23  C1  UNL     1      60.636  53.618  77.022  0.00  0.00    +0.000 C 
ATOM     24  C2  UNL     1      60.132  53.141  75.697  0.00  0.00    +0.000 C 
ATOM     25  O1  UNL     1      59.551  52.023  75.622  0.00  0.00    +0.000 OA
ATOM     26  N1  UNL     1      60.364  53.919  74.514  0.00  0.00    +0.000 N 
ATOM     27  H4  UNL     1      61.077  54.680  74.560  0.00  0.00    +0.000 HD
ENDBRANCH   1  26
BRANCH   8  28
ATOM     28  C11 UNL     1      58.061  55.837  69.040  0.00  0.00    +0.000 C 
ATOM     29  O2  UNL     1      59.189  55.272  69.045  0.00  0.00    +0.000 OA
ATOM     30  N2  UNL     1      57.937  57.172  68.529  0.00  0.00    +0.000 N 
ATOM     31  H11 UNL     1      56.979  57.561  68.378  0.00  0.00    +0.000 HD
BRANCH  30  32
ATOM     32  C12 UNL     1      59.114  57.980  68.202  0.00  0.00    +0.000 C 
BRANCH  32  33
ATOM     33  C13 UNL     1      59.292  59.148  69.178  0.00  0.00    +0.000 C 
BRANCH  33  34
ATOM     34  C14 UNL     1      60.387  58.894  70.165  0.00  0.00    +0.000 A 
ATOM     35  N3  UNL     1      60.902  57.675  70.410  0.00  0.00    +0.000 NA
ATOM     36  C15 UNL     1      61.837  57.961  71.338  0.00  0.00    +0.000 A 
ATOM     37  N4  UNL     1      61.882  59.277  71.631  0.00  0.00    +0.000 NA
ATOM     38  O3  UNL     1      60.972  59.820  70.883  0.00  0.00    +0.000 OA
BRANCH  36  39
ATOM     39  C16 UNL     1      62.710  56.943  71.961  0.00  0.00    +0.000 A 
ATOM     40  C17 UNL     1      62.470  55.573  71.748  0.00  0.00    +0.000 A 
ATOM     41  C18 UNL     1      63.291  54.609  72.344  0.00  0.00    +0.000 A 
ATOM     42  C19 UNL     1      64.353  55.002  73.161  0.00  0.00    +0.000 A 
ATOM     43  C20 UNL     1      64.599  56.360  73.380  0.00  0.00    +0.000 A 
ATOM     44  C21 UNL     1      63.784  57.328  72.784  0.00  0.00    +0.000 A 
ENDBRANCH  36  39
ENDBRANCH  33  34
ENDBRANCH  32  33
ENDBRANCH  30  32
ENDBRANCH   8  28
TORSDOF 6
ENDMDL
MODEL 2
REMARK VINA RESULT:    -8.474      2.688      7.746
REMARK INTER + INTRA:         -12.669
REMARK INTER:                 -11.498
REMARK INTRA:                  -1.171
REMARK UNBOUND:                -1.223
REMARK  Name = CNP0112283_1.pdb
REMARK  7 active torsions:
REMARK  status: ('A' for Active; 'I' for Inactive)
REMARK    1  A    between atoms: C1_1  and  C2_2
REMARK    2  A    between atoms: N1_4  and  C3_5
REMARK    3  A    between atoms: C10_12  and  C11_13
REMARK    4  A    between atoms: N2_15  and  C12_16
REMARK    5  A    between atoms: C12_16  and  C13_17
REMARK    6  A    between atoms: C13_17  and  C14_18
REMARK    7  A    between atoms: C15_20  and  C16_21
REMARK                            x       y       z     vdW  Elec       q    Type
REMARK                         _______ _______ _______ _____ _____    ______ ____
ROOT
ATOM      1  C3  UNL     1      59.024  56.822  66.654  0.00  0.00    +0.000 A 
ATOM      2  C4  UNL     1      60.356  56.433  66.838  0.00  0.00    +0.000 A 
ATOM      3  C5  UNL     1      60.939  56.470  68.108  0.00  0.00    +0.000 A 
ATOM      4  C6  UNL     1      60.209  56.927  69.225  0.00  0.00    +0.000 A 
ATOM      5  C7  UNL     1      58.839  57.248  69.043  0.00  0.00    +0.000 A 
ATOM      6  C8  UNL     1      58.273  57.235  67.760  0.00  0.00    +0.000 A 
ATOM      7  C9  UNL     1      57.970  57.605  70.223  0.00  0.00    +0.000 C 
ATOM      8  C10 UNL     1      58.483  56.927  71.501  0.00  0.00    +0.000 C 
ATOM      9  C22 UNL     1      59.964  57.346  71.711  0.00  0.00    +0.000 C 
ATOM     10  C23 UNL     1      60.609  56.893  73.058  0.00  0.00    +0.000 C 
ATOM     11  C24 UNL     1      61.997  57.516  73.178  0.00  0.00    +0.000 C 
ATOM     12  C25 UNL     1      62.842  56.998  72.014  0.00  0.00    +0.000 C 
ATOM     13  C26 UNL     1      62.233  57.434  70.668  0.00  0.00    +0.000 C 
ATOM     14  N5  UNL     1      60.818  57.026  70.545  0.00  0.00    +0.000 N 
ATOM     15  C27 UNL     1      63.011  55.462  72.097  0.00  0.00    +0.000 C 
ATOM     16  N6  UNL     1      61.836  54.731  72.630  0.00  0.00    +0.000 N 
ATOM     17  C28 UNL     1      60.761  55.392  73.187  0.00  0.00    +0.000 A 
ATOM     18  C29 UNL     1      59.798  54.673  73.914  0.00  0.00    +0.000 A 
ATOM     19  C30 UNL     1      59.874  53.288  73.988  0.00  0.00    +0.000 A 
ATOM     20  C31 UNL     1      60.921  52.624  73.362  0.00  0.00    +0.000 A 
ATOM     21  C32 UNL     1      61.910  53.360  72.701  0.00  0.00    +0.000 A 
ATOM     22  O4  UNL     1      62.886  52.742  72.191  0.00  0.00    +0.000 OA
ENDROOT
BRANCH   1  26
ATOM     23  C1  UNL     1      57.688  55.765  63.168  0.00  0.00    +0.000 C 
ATOM     24  C2  UNL     1      58.092  55.662  64.604  0.00  0.00    +0.000 C 
ATOM     25  O1  UNL     1      58.082  54.533  65.169  0.00  0.00    +0.000 OA
ATOM     26  N1  UNL     1      58.428  56.842  65.347  0.00  0.00    +0.000 N 
ATOM     27  H4  UNL     1      58.158  57.767  64.945  0.00  0.00    +0.000 HD
ENDBRANCH   1  26
BRANCH   8  28
ATOM     28  C11 UNL     1      58.236  55.432  71.423  0.00  0.00    +0.000 C 
ATOM     29  O2  UNL     1      58.966  54.700  70.700  0.00  0.00    +0.000 OA
ATOM     30  N2  UNL     1      57.139  54.851  72.143  0.00  0.00    +0.000 N 
ATOM     31  H11 UNL     1      56.650  55.433  72.861  0.00  0.00    +0.000 HD
BRANCH  30  32
ATOM     32  C12 UNL     1      56.710  53.471  71.904  0.00  0.00    +0.000 C 
BRANCH  32  33
ATOM     33  C13 UNL     1      55.809  52.952  73.030  0.00  0.00    +0.000 C 
BRANCH  33  34
ATOM     34  C14 UNL     1      56.031  53.691  74.312  0.00  0.00    +0.000 A 
ATOM     35  N3  UNL     1      56.891  53.290  75.266  0.00  0.00    +0.000 NA
ATOM     36  C15 UNL     1      56.742  54.261  76.188  0.00  0.00    +0.000 A 
ATOM     37  N4  UNL     1      55.846  55.195  75.807  0.00  0.00    +0.000 NA
ATOM     38  O3  UNL     1      55.431  54.807  74.642  0.00  0.00    +0.000 OA
BRANCH  36  39
ATOM     39  C16 UNL     1      57.480  54.295  77.469  0.00  0.00    +0.000 A 
ATOM     40  C17 UNL     1      58.829  53.897  77.523  0.00  0.00    +0.000 A 
ATOM     41  C18 UNL     1      59.526  53.920  78.736  0.00  0.00    +0.000 A 
ATOM     42  C19 UNL     1      58.883  54.334  79.905  0.00  0.00    +0.000 A 
ATOM     43  C20 UNL     1      57.544  54.730  79.862  0.00  0.00    +0.000 A 
ATOM     44  C21 UNL     1      56.844  54.712  78.651  0.00  0.00    +0.000 A 
ENDBRANCH  36  39
ENDBRANCH  33  34
ENDBRANCH  32  33
ENDBRANCH  30  32
ENDBRANCH   8  28
TORSDOF 6
ENDMDL
MODEL 3
REMARK VINA RESULT:    -8.219      1.492      1.942
REMARK INTER + INTRA:         -12.325
REMARK INTER:                 -10.712
REMARK INTRA:                  -1.613
REMARK UNBOUND:                -1.223
REMARK  Name = CNP0112283_1.pdb
REMARK  7 active torsions:
REMARK  status: ('A' for Active; 'I' for Inactive)
REMARK    1  A    between atoms: C1_1  and  C2_2
REMARK    2  A    between atoms: N1_4  and  C3_5
REMARK    3  A    between atoms: C10_12  and  C11_13
REMARK    4  A    between atoms: N2_15  and  C12_16
REMARK    5  A    between atoms: C12_16  and  C13_17
REMARK    6  A    between atoms: C13_17  and  C14_18
REMARK    7  A    between atoms: C15_20  and  C16_21
REMARK                            x       y       z     vdW  Elec       q    Type
REMARK                         _______ _______ _______ _____ _____    ______ ____
ROOT
ATOM      1  C3  UNL     1      60.123  53.714  74.299  0.00  0.00    +0.000 A 
ATOM      2  C4  UNL     1      60.299  52.688  73.363  0.00  0.00    +0.000 A 
ATOM      3  C5  UNL     1      59.554  52.668  72.181  0.00  0.00    +0.000 A 
ATOM      4  C6  UNL     1      58.590  53.664  71.918  0.00  0.00    +0.000 A 
ATOM      5  C7  UNL     1      58.472  54.740  72.834  0.00  0.00    +0.000 A 
ATOM      6  C8  UNL     1      59.204  54.733  74.031  0.00  0.00    +0.000 A 
ATOM      7  C9  UNL     1      57.563  55.906  72.538  0.00  0.00    +0.000 C 
ATOM      8  C10 UNL     1      57.415  56.109  71.023  0.00  0.00    +0.000 C 
ATOM      9  C22 UNL     1      56.894  54.783  70.405  0.00  0.00    +0.000 C 
ATOM     10  C23 UNL     1      56.515  54.847  68.892  0.00  0.00    +0.000 C 
ATOM     11  C24 UNL     1      55.876  53.523  68.485  0.00  0.00    +0.000 C 
ATOM     12  C25 UNL     1      56.911  52.420  68.700  0.00  0.00    +0.000 C 
ATOM     13  C26 UNL     1      57.303  52.327  70.187  0.00  0.00    +0.000 C 
ATOM     14  N5  UNL     1      57.765  53.627  70.716  0.00  0.00    +0.000 N 
ATOM     15  C27 UNL     1      58.147  52.640  67.794  0.00  0.00    +0.000 C 
ATOM     16  N6  UNL     1      58.513  54.059  67.570  0.00  0.00    +0.000 N 
ATOM     17  C28 UNL     1      57.697  55.094  67.978  0.00  0.00    +0.000 A 
ATOM     18  C29 UNL     1      57.939  56.398  67.520  0.00  0.00    +0.000 A 
ATOM     19  C30 UNL     1      59.057  56.664  66.739  0.00  0.00    +0.000 A 
ATOM     20  C31 UNL     1      59.914  55.628  66.392  0.00  0.00    +0.000 A 
ATOM     21  C32 UNL     1      59.620  54.323  66.798  0.00  0.00    +0.000 A 
ATOM     22  O4  UNL     1      60.378  53.386  66.422  0.00  0.00    +0.000 OA
ENDROOT
BRANCH   1  26
ATOM     23  C1  UNL     1      61.015  53.507  78.069  0.00  0.00    +0.000 C 
ATOM     24  C2  UNL     1      60.288  53.260  76.785  0.00  0.00    +0.000 C 
ATOM     25  O1  UNL     1      59.214  52.598  76.801  0.00  0.00    +0.000 OA
ATOM     26  N1  UNL     1      60.841  53.718  75.543  0.00  0.00    +0.000 N 
ATOM     27  H4  UNL     1      61.845  54.004  75.530  0.00  0.00    +0.000 HD
ENDBRANCH   1  26
BRANCH   8  28
ATOM     28  C11 UNL     1      58.720  56.627  70.446  0.00  0.00    +0.000 C 
ATOM     29  O2  UNL     1      59.626  55.823  70.092  0.00  0.00    +0.000 OA
ATOM     30  N2  UNL     1      58.943  58.040  70.340  0.00  0.00    +0.000 N 
ATOM     31  H11 UNL     1      58.131  58.684  70.478  0.00  0.00    +0.000 HD
BRANCH  30  32
ATOM     32  C12 UNL     1      60.266  58.586  70.028  0.00  0.00    +0.000 C 
BRANCH  32  33
ATOM     33  C13 UNL     1      61.021  59.005  71.294  0.00  0.00    +0.000 C 
BRANCH  33  34
ATOM     34  C14 UNL     1      62.040  57.989  71.702  0.00  0.00    +0.000 A 
ATOM     35  N3  UNL     1      61.812  56.663  71.707  0.00  0.00    +0.000 NA
ATOM     36  C15 UNL     1      63.000  56.188  72.128  0.00  0.00    +0.000 A 
ATOM     37  N4  UNL     1      63.892  57.173  72.361  0.00  0.00    +0.000 NA
ATOM     38  O3  UNL     1      63.261  58.271  72.083  0.00  0.00    +0.000 OA
BRANCH  36  39
ATOM     39  C16 UNL     1      63.287  54.749  72.314  0.00  0.00    +0.000 A 
ATOM     40  C17 UNL     1      63.044  53.835  71.272  0.00  0.00    +0.000 A 
ATOM     41  C18 UNL     1      63.308  52.472  71.449  0.00  0.00    +0.000 A 
ATOM     42  C19 UNL     1      63.810  52.009  72.667  0.00  0.00    +0.000 A 
ATOM     43  C20 UNL     1      64.054  52.908  73.709  0.00  0.00    +0.000 A 
ATOM     44  C21 UNL     1      63.795  54.272  73.535  0.00  0.00    +0.000 A 
ENDBRANCH  36  39
ENDBRANCH  33  34
ENDBRANCH  32  33
ENDBRANCH  30  32
ENDBRANCH   8  28
TORSDOF 6
ENDMDL
MODEL 4
REMARK VINA RESULT:    -8.163      2.348      5.945
REMARK INTER + INTRA:         -12.249
REMARK INTER:                 -11.336
REMARK INTRA:                  -0.913
REMARK UNBOUND:                -1.223
REMARK  Name = CNP0112283_1.pdb
REMARK  7 active torsions:
REMARK  status: ('A' for Active; 'I' for Inactive)
REMARK    1  A    between atoms: C1_1  and  C2_2
REMARK    2  A    between atoms: N1_4  and  C3_5
REMARK    3  A    between atoms: C10_12  and  C11_13
REMARK    4  A    between atoms: N2_15  and  C12_16
REMARK    5  A    between atoms: C12_16  and  C13_17
REMARK    6  A    between atoms: C13_17  and  C14_18
REMARK    7  A    between atoms: C15_20  and  C16_21
REMARK                            x       y       z     vdW  Elec       q    Type
REMARK                         _______ _______ _______ _____ _____    ______ ____
ROOT
ATOM      1  C3  UNL     1      54.995  51.703  67.102  0.00  0.00    +0.000 A 
ATOM      2  C4  UNL     1      54.356  51.545  68.337  0.00  0.00    +0.000 A 
ATOM      3  C5  UNL     1      55.061  51.722  69.530  0.00  0.00    +0.000 A 
ATOM      4  C6  UNL     1      56.436  52.036  69.517  0.00  0.00    +0.000 A 
ATOM      5  C7  UNL     1      57.058  52.268  68.263  0.00  0.00    +0.000 A 
ATOM      6  C8  UNL     1      56.347  52.058  67.072  0.00  0.00    +0.000 A 
ATOM      7  C9  UNL     1      58.486  52.745  68.190  0.00  0.00    +0.000 C 
ATOM      8  C10 UNL     1      58.854  53.555  69.442  0.00  0.00    +0.000 C 
ATOM      9  C22 UNL     1      58.592  52.666  70.688  0.00  0.00    +0.000 C 
ATOM     10  C23 UNL     1      59.071  53.256  72.051  0.00  0.00    +0.000 C 
ATOM     11  C24 UNL     1      58.889  52.203  73.140  0.00  0.00    +0.000 C 
ATOM     12  C25 UNL     1      57.399  51.876  73.227  0.00  0.00    +0.000 C 
ATOM     13  C26 UNL     1      56.896  51.285  71.897  0.00  0.00    +0.000 C 
ATOM     14  N5  UNL     1      57.199  52.169  70.752  0.00  0.00    +0.000 N 
ATOM     15  C27 UNL     1      56.585  53.124  73.645  0.00  0.00    +0.000 C 
ATOM     16  N6  UNL     1      57.100  54.412  73.119  0.00  0.00    +0.000 N 
ATOM     17  C28 UNL     1      58.317  54.499  72.476  0.00  0.00    +0.000 A 
ATOM     18  C29 UNL     1      58.891  55.757  72.231  0.00  0.00    +0.000 A 
ATOM     19  C30 UNL     1      58.189  56.914  72.546  0.00  0.00    +0.000 A 
ATOM     20  C31 UNL     1      56.932  56.816  73.128  0.00  0.00    +0.000 A 
ATOM     21  C32 UNL     1      56.405  55.557  73.429  0.00  0.00    +0.000 A 
ATOM     22  O4  UNL     1      55.288  55.491  74.014  0.00  0.00    +0.000 OA
ENDROOT
BRANCH   1  26
ATOM     23  C1  UNL     1      53.668  50.074  63.839  0.00  0.00    +0.000 C 
ATOM     24  C2  UNL     1      54.214  50.188  65.227  0.00  0.00    +0.000 C 
ATOM     25  O1  UNL     1      54.547  49.141  65.848  0.00  0.00    +0.000 OA
ATOM     26  N1  UNL     1      54.298  51.469  65.867  0.00  0.00    +0.000 N 
ATOM     27  H4  UNL     1      53.763  52.262  65.448  0.00  0.00    +0.000 HD
ENDBRANCH   1  26
BRANCH   8  28
ATOM     28  C11 UNL     1      58.121  54.884  69.426  0.00  0.00    +0.000 C 
ATOM     29  O2  UNL     1      56.898  54.943  69.729  0.00  0.00    +0.000 OA
ATOM     30  N2  UNL     1      58.812  56.075  69.024  0.00  0.00    +0.000 N 
ATOM     31  H11 UNL     1      59.853  56.042  68.938  0.00  0.00    +0.000 HD
BRANCH  30  32
ATOM     32  C12 UNL     1      58.095  57.323  68.753  0.00  0.00    +0.000 C 
BRANCH  32  33
ATOM     33  C13 UNL     1      59.055  58.505  68.580  0.00  0.00    +0.000 C 
BRANCH  33  34
ATOM     34  C14 UNL     1      60.100  58.541  69.650  0.00  0.00    +0.000 A 
ATOM     35  N3  UNL     1      60.820  57.469  70.026  0.00  0.00    +0.000 NA
ATOM     36  C15 UNL     1      61.608  57.998  70.983  0.00  0.00    +0.000 A 
ATOM     37  N4  UNL     1      61.375  59.314  71.169  0.00  0.00    +0.000 NA
ATOM     38  O3  UNL     1      60.438  59.612  70.324  0.00  0.00    +0.000 OA
BRANCH  36  39
ATOM     39  C16 UNL     1      62.610  57.219  71.741  0.00  0.00    +0.000 A 
ATOM     40  C17 UNL     1      62.545  55.813  71.771  0.00  0.00    +0.000 A 
ATOM     41  C18 UNL     1      63.488  55.076  72.494  0.00  0.00    +0.000 A 
ATOM     42  C19 UNL     1      64.500  55.731  73.198  0.00  0.00    +0.000 A 
ATOM     43  C20 UNL     1      64.574  57.127  73.176  0.00  0.00    +0.000 A 
ATOM     44  C21 UNL     1      63.635  57.869  72.451  0.00  0.00    +0.000 A 
ENDBRANCH  36  39
ENDBRANCH  33  34
ENDBRANCH  32  33
ENDBRANCH  30  32
ENDBRANCH   8  28
TORSDOF 6
ENDMDL
MODEL 5
REMARK VINA RESULT:    -8.078      3.023      6.735
REMARK INTER + INTRA:         -12.135
REMARK INTER:                  -9.862
REMARK INTRA:                  -2.273
REMARK UNBOUND:                -1.223
REMARK  Name = CNP0112283_1.pdb
REMARK  7 active torsions:
REMARK  status: ('A' for Active; 'I' for Inactive)
REMARK    1  A    between atoms: C1_1  and  C2_2
REMARK    2  A    between atoms: N1_4  and  C3_5
REMARK    3  A    between atoms: C10_12  and  C11_13
REMARK    4  A    between atoms: N2_15  and  C12_16
REMARK    5  A    between atoms: C12_16  and  C13_17
REMARK    6  A    between atoms: C13_17  and  C14_18
REMARK    7  A    between atoms: C15_20  and  C16_21
REMARK                            x       y       z     vdW  Elec       q    Type
REMARK                         _______ _______ _______ _____ _____    ______ ____
ROOT
ATOM      1  C3  UNL     1      55.828  55.453  73.954  0.00  0.00    +0.000 A 
ATOM      2  C4  UNL     1      56.240  56.790  73.941  0.00  0.00    +0.000 A 
ATOM      3  C5  UNL     1      57.450  57.156  73.346  0.00  0.00    +0.000 A 
ATOM      4  C6  UNL     1      58.295  56.184  72.770  0.00  0.00    +0.000 A 
ATOM      5  C7  UNL     1      57.836  54.843  72.721  0.00  0.00    +0.000 A 
ATOM      6  C8  UNL     1      56.633  54.483  73.348  0.00  0.00    +0.000 A 
ATOM      7  C9  UNL     1      58.627  53.786  71.994  0.00  0.00    +0.000 C 
ATOM      8  C10 UNL     1      59.445  54.407  70.852  0.00  0.00    +0.000 C 
ATOM      9  C22 UNL     1      60.353  55.515  71.454  0.00  0.00    +0.000 C 
ATOM     10  C23 UNL     1      61.388  56.146  70.471  0.00  0.00    +0.000 C 
ATOM     11  C24 UNL     1      62.300  57.090  71.250  0.00  0.00    +0.000 C 
ATOM     12  C25 UNL     1      61.428  58.195  71.844  0.00  0.00    +0.000 C 
ATOM     13  C26 UNL     1      60.397  57.604  72.824  0.00  0.00    +0.000 C 
ATOM     14  N5  UNL     1      59.586  56.541  72.195  0.00  0.00    +0.000 N 
ATOM     15  C27 UNL     1      60.748  59.021  70.725  0.00  0.00    +0.000 C 
ATOM     16  N6  UNL     1      60.361  58.245  69.523  0.00  0.00    +0.000 N 
ATOM     17  C28 UNL     1      60.756  56.935  69.344  0.00  0.00    +0.000 A 
ATOM     18  C29 UNL     1      60.602  56.322  68.090  0.00  0.00    +0.000 A 
ATOM     19  C30 UNL     1      59.960  56.999  67.061  0.00  0.00    +0.000 A 
ATOM     20  C31 UNL     1      59.501  58.293  67.271  0.00  0.00    +0.000 A 
ATOM     21  C32 UNL     1      59.725  58.914  68.504  0.00  0.00    +0.000 A 
ATOM     22  O4  UNL     1      59.354  60.111  68.655  0.00  0.00    +0.000 OA
ENDROOT
BRANCH   1  26
ATOM     23  C1  UNL     1      53.299  53.945  76.481  0.00  0.00    +0.000 C 
ATOM     24  C2  UNL     1      54.561  54.548  75.953  0.00  0.00    +0.000 C 
ATOM     25  O1  UNL     1      55.560  54.659  76.717  0.00  0.00    +0.000 OA
ATOM     26  N1  UNL     1      54.614  55.053  74.611  0.00  0.00    +0.000 N 
ATOM     27  H4  UNL     1      53.711  55.205  74.109  0.00  0.00    +0.000 HD
ENDBRANCH   1  26
BRANCH   8  28
ATOM     28  C11 UNL     1      58.514  54.862  69.743  0.00  0.00    +0.000 C 
ATOM     29  O2  UNL     1      57.821  55.907  69.878  0.00  0.00    +0.000 OA
ATOM     30  N2  UNL     1      58.388  54.076  68.550  0.00  0.00    +0.000 N 
ATOM     31  H11 UNL     1      59.082  53.312  68.380  0.00  0.00    +0.000 HD
BRANCH  30  32
ATOM     32  C12 UNL     1      57.330  54.333  67.570  0.00  0.00    +0.000 C 
BRANCH  32  33
ATOM     33  C13 UNL     1      56.300  53.198  67.533  0.00  0.00    +0.000 C 
BRANCH  33  34
ATOM     34  C14 UNL     1      56.397  52.314  68.736  0.00  0.00    +0.000 A 
ATOM     35  N3  UNL     1      55.764  52.562  69.897  0.00  0.00    +0.000 NA
ATOM     36  C15 UNL     1      56.146  51.505  70.642  0.00  0.00    +0.000 A 
ATOM     37  N4  UNL     1      56.961  50.670  69.965  0.00  0.00    +0.000 NA
ATOM     38  O3  UNL     1      57.089  51.203  68.790  0.00  0.00    +0.000 OA
BRANCH  36  39
ATOM     39  C16 UNL     1      55.720  51.293  72.042  0.00  0.00    +0.000 A 
ATOM     40  C17 UNL     1      56.602  50.717  72.975  0.00  0.00    +0.000 A 
ATOM     41  C18 UNL     1      56.197  50.509  74.297  0.00  0.00    +0.000 A 
ATOM     42  C19 UNL     1      54.908  50.867  74.700  0.00  0.00    +0.000 A 
ATOM     43  C20 UNL     1      54.024  51.439  73.781  0.00  0.00    +0.000 A 
ATOM     44  C21 UNL     1      54.426  51.653  72.458  0.00  0.00    +0.000 A 
ENDBRANCH  36  39
ENDBRANCH  33  34
ENDBRANCH  32  33
ENDBRANCH  30  32
ENDBRANCH   8  28
TORSDOF 6
ENDMDL
MODEL 6
REMARK VINA RESULT:    -7.997      2.591      5.459
REMARK INTER + INTRA:         -12.026
REMARK INTER:                 -11.316
REMARK INTRA:                  -0.710
REMARK UNBOUND:                -1.223
REMARK  Name = CNP0112283_1.pdb
REMARK  7 active torsions:
REMARK  status: ('A' for Active; 'I' for Inactive)
REMARK    1  A    between atoms: C1_1  and  C2_2
REMARK    2  A    between atoms: N1_4  and  C3_5
REMARK    3  A    between atoms: C10_12  and  C11_13
REMARK    4  A    between atoms: N2_15  and  C12_16
REMARK    5  A    between atoms: C12_16  and  C13_17
REMARK    6  A    between atoms: C13_17  and  C14_18
REMARK    7  A    between atoms: C15_20  and  C16_21
REMARK                            x       y       z     vdW  Elec       q    Type
REMARK                         _______ _______ _______ _____ _____    ______ ____
ROOT
ATOM      1  C3  UNL     1      56.918  56.372  73.382  0.00  0.00    +0.000 A 
ATOM      2  C4  UNL     1      56.220  55.772  72.327  0.00  0.00    +0.000 A 
ATOM      3  C5  UNL     1      56.793  55.683  71.056  0.00  0.00    +0.000 A 
ATOM      4  C6  UNL     1      58.072  56.218  70.800  0.00  0.00    +0.000 A 
ATOM      5  C7  UNL     1      58.803  56.756  71.890  0.00  0.00    +0.000 A 
ATOM      6  C8  UNL     1      58.206  56.868  73.155  0.00  0.00    +0.000 A 
ATOM      7  C9  UNL     1      60.228  57.213  71.710  0.00  0.00    +0.000 C 
ATOM      8  C10 UNL     1      60.913  56.428  70.582  0.00  0.00    +0.000 C 
ATOM      9  C22 UNL     1      60.069  56.602  69.289  0.00  0.00    +0.000 C 
ATOM     10  C23 UNL     1      60.700  56.016  67.988  0.00  0.00    +0.000 C 
ATOM     11  C24 UNL     1      59.833  56.407  66.796  0.00  0.00    +0.000 C 
ATOM     12  C25 UNL     1      58.449  55.795  67.006  0.00  0.00    +0.000 C 
ATOM     13  C26 UNL     1      57.795  56.359  68.282  0.00  0.00    +0.000 C 
ATOM     14  N5  UNL     1      58.661  56.183  69.467  0.00  0.00    +0.000 N 
ATOM     15  C27 UNL     1      58.529  54.250  67.036  0.00  0.00    +0.000 C 
ATOM     16  N6  UNL     1      59.758  53.700  67.657  0.00  0.00    +0.000 N 
ATOM     17  C28 UNL     1      60.824  54.506  67.996  0.00  0.00    +0.000 A 
ATOM     18  C29 UNL     1      62.060  53.929  68.330  0.00  0.00    +0.000 A 
ATOM     19  C30 UNL     1      62.181  52.548  68.415  0.00  0.00    +0.000 A 
ATOM     20  C31 UNL     1      61.082  51.745  68.141  0.00  0.00    +0.000 A 
ATOM     21  C32 UNL     1      59.877  52.332  67.743  0.00  0.00    +0.000 A 
ATOM     22  O4  UNL     1      58.908  51.583  67.439  0.00  0.00    +0.000 OA
ENDROOT
BRANCH   1  26
ATOM     23  C1  UNL     1      55.370  55.634  76.863  0.00  0.00    +0.000 C 
ATOM     24  C2  UNL     1      56.202  55.456  75.632  0.00  0.00    +0.000 C 
ATOM     25  O1  UNL     1      56.840  54.379  75.469  0.00  0.00    +0.000 OA
ATOM     26  N1  UNL     1      56.322  56.522  74.680  0.00  0.00    +0.000 N 
ATOM     27  H4  UNL     1      56.021  57.478  74.975  0.00  0.00    +0.000 HD
ENDBRANCH   1  26
BRANCH   8  28
ATOM     28  C11 UNL     1      61.140  54.993  71.022  0.00  0.00    +0.000 C 
ATOM     29  O2  UNL     1      60.184  54.170  71.037  0.00  0.00    +0.000 OA
ATOM     30  N2  UNL     1      62.441  54.580  71.463  0.00  0.00    +0.000 N 
ATOM     31  H11 UNL     1      63.252  55.216  71.290  0.00  0.00    +0.000 HD
BRANCH  30  32
ATOM     32  C12 UNL     1      62.651  53.291  72.126  0.00  0.00    +0.000 C 
BRANCH  32  33
ATOM     33  C13 UNL     1      63.283  53.461  73.512  0.00  0.00    +0.000 C 
BRANCH  33  34
ATOM     34  C14 UNL     1      62.254  53.489  74.598  0.00  0.00    +0.000 A 
ATOM     35  N3  UNL     1      62.554  53.518  75.909  0.00  0.00    +0.000 NA
ATOM     36  C15 UNL     1      61.326  53.544  76.465  0.00  0.00    +0.000 A 
ATOM     37  N4  UNL     1      60.345  53.535  75.538  0.00  0.00    +0.000 NA
ATOM     38  O3  UNL     1      60.960  53.503  74.397  0.00  0.00    +0.000 OA
BRANCH  36  39
ATOM     39  C16 UNL     1      61.087  53.579  77.924  0.00  0.00    +0.000 A 
ATOM     40  C17 UNL     1      59.805  53.868  78.428  0.00  0.00    +0.000 A 
ATOM     41  C18 UNL     1      59.581  53.909  79.808  0.00  0.00    +0.000 A 
ATOM     42  C19 UNL     1      60.630  53.667  80.697  0.00  0.00    +0.000 A 
ATOM     43  C20 UNL     1      61.907  53.379  80.206  0.00  0.00    +0.000 A 
ATOM     44  C21 UNL     1      62.137  53.334  78.826  0.00  0.00    +0.000 A 
ENDBRANCH  36  39
ENDBRANCH  33  34
ENDBRANCH  32  33
ENDBRANCH  30  32
ENDBRANCH   8  28
TORSDOF 6
ENDMDL
MODEL 7
REMARK VINA RESULT:    -7.958      2.311      6.532
REMARK INTER + INTRA:         -11.973
REMARK INTER:                 -10.686
REMARK INTRA:                  -1.287
REMARK UNBOUND:                -1.223
REMARK  Name = CNP0112283_1.pdb
REMARK  7 active torsions:
REMARK  status: ('A' for Active; 'I' for Inactive)
REMARK    1  A    between atoms: C1_1  and  C2_2
REMARK    2  A    between atoms: N1_4  and  C3_5
REMARK    3  A    between atoms: C10_12  and  C11_13
REMARK    4  A    between atoms: N2_15  and  C12_16
REMARK    5  A    between atoms: C12_16  and  C13_17
REMARK    6  A    between atoms: C13_17  and  C14_18
REMARK    7  A    between atoms: C15_20  and  C16_21
REMARK                            x       y       z     vdW  Elec       q    Type
REMARK                         _______ _______ _______ _____ _____    ______ ____
ROOT
ATOM      1  C3  UNL     1      59.804  54.727  66.597  0.00  0.00    +0.000 A 
ATOM      2  C4  UNL     1      60.714  55.249  67.525  0.00  0.00    +0.000 A 
ATOM      3  C5  UNL     1      60.285  55.653  68.791  0.00  0.00    +0.000 A 
ATOM      4  C6  UNL     1      58.924  55.570  69.154  0.00  0.00    +0.000 A 
ATOM      5  C7  UNL     1      58.022  54.971  68.237  0.00  0.00    +0.000 A 
ATOM      6  C8  UNL     1      58.459  54.597  66.958  0.00  0.00    +0.000 A 
ATOM      7  C9  UNL     1      56.586  54.725  68.621  0.00  0.00    +0.000 C 
ATOM      8  C10 UNL     1      56.455  54.525  70.138  0.00  0.00    +0.000 C 
ATOM      9  C22 UNL     1      57.049  55.773  70.845  0.00  0.00    +0.000 C 
ATOM     10  C23 UNL     1      56.850  55.832  72.392  0.00  0.00    +0.000 C 
ATOM     11  C24 UNL     1      57.342  57.183  72.905  0.00  0.00    +0.000 C 
ATOM     12  C25 UNL     1      58.832  57.288  72.583  0.00  0.00    +0.000 C 
ATOM     13  C26 UNL     1      59.062  57.239  71.060  0.00  0.00    +0.000 C 
ATOM     14  N5  UNL     1      58.451  56.040  70.450  0.00  0.00    +0.000 N 
ATOM     15  C27 UNL     1      59.634  56.189  73.320  0.00  0.00    +0.000 C 
ATOM     16  N6  UNL     1      58.929  54.892  73.467  0.00  0.00    +0.000 N 
ATOM     17  C28 UNL     1      57.595  54.750  73.144  0.00  0.00    +0.000 A 
ATOM     18  C29 UNL     1      56.899  53.597  73.541  0.00  0.00    +0.000 A 
ATOM     19  C30 UNL     1      57.575  52.558  74.168  0.00  0.00    +0.000 A 
ATOM     20  C31 UNL     1      58.934  52.680  74.425  0.00  0.00    +0.000 A 
ATOM     21  C32 UNL     1      59.598  53.863  74.087  0.00  0.00    +0.000 A 
ATOM     22  O4  UNL     1      60.820  53.979  74.383  0.00  0.00    +0.000 OA
ENDROOT
BRANCH   1  26
ATOM     23  C1  UNL     1      61.048  52.713  63.523  0.00  0.00    +0.000 C 
ATOM     24  C2  UNL     1      60.399  53.003  64.839  0.00  0.00    +0.000 C 
ATOM     25  O1  UNL     1      59.961  52.046  65.536  0.00  0.00    +0.000 OA
ATOM     26  N1  UNL     1      60.220  54.359  65.272  0.00  0.00    +0.000 N 
ATOM     27  H4  UNL     1      60.330  55.118  64.564  0.00  0.00    +0.000 HD
ENDBRANCH   1  26
BRANCH   8  28
ATOM     28  C11 UNL     1      57.075  53.197  70.535  0.00  0.00    +0.000 C 
ATOM     29  O2  UNL     1      56.359  52.276  71.014  0.00  0.00    +0.000 OA
ATOM     30  N2  UNL     1      58.490  53.002  70.405  0.00  0.00    +0.000 N 
ATOM     31  H11 UNL     1      59.041  53.703  69.858  0.00  0.00    +0.000 HD
BRANCH  30  32
ATOM     32  C12 UNL     1      59.163  51.846  71.001  0.00  0.00    +0.000 C 
BRANCH  32  33
ATOM     33  C13 UNL     1      60.493  51.539  70.303  0.00  0.00    +0.000 C 
BRANCH  33  34
ATOM     34  C14 UNL     1      61.631  52.298  70.909  0.00  0.00    +0.000 A 
ATOM     35  N3  UNL     1      61.598  53.619  71.160  0.00  0.00    +0.000 NA
ATOM     36  C15 UNL     1      62.818  53.822  71.696  0.00  0.00    +0.000 A 
ATOM     37  N4  UNL     1      63.542  52.685  71.765  0.00  0.00    +0.000 NA
ATOM     38  O3  UNL     1      62.772  51.766  71.271  0.00  0.00    +0.000 OA
BRANCH  36  39
ATOM     39  C16 UNL     1      63.302  55.142  72.154  0.00  0.00    +0.000 A 
ATOM     40  C17 UNL     1      64.271  55.230  73.172  0.00  0.00    +0.000 A 
ATOM     41  C18 UNL     1      64.724  56.479  73.611  0.00  0.00    +0.000 A 
ATOM     42  C19 UNL     1      64.213  57.648  73.045  0.00  0.00    +0.000 A 
ATOM     43  C20 UNL     1      63.250  57.572  72.035  0.00  0.00    +0.000 A 
ATOM     44  C21 UNL     1      62.796  56.325  71.589  0.00  0.00    +0.000 A 
ENDBRANCH  36  39
ENDBRANCH  33  34
ENDBRANCH  32  33
ENDBRANCH  30  32
ENDBRANCH   8  28
TORSDOF 6
ENDMDL
MODEL 8
REMARK VINA RESULT:    -7.820      3.189      5.061
REMARK INTER + INTRA:         -11.786
REMARK INTER:                  -9.702
REMARK INTRA:                  -2.083
REMARK UNBOUND:                -1.223
REMARK  Name = CNP0112283_1.pdb
REMARK  7 active torsions:
REMARK  status: ('A' for Active; 'I' for Inactive)
REMARK    1  A    between atoms: C1_1  and  C2_2
REMARK    2  A    between atoms: N1_4  and  C3_5
REMARK    3  A    between atoms: C10_12  and  C11_13
REMARK    4  A    between atoms: N2_15  and  C12_16
REMARK    5  A    between atoms: C12_16  and  C13_17
REMARK    6  A    between atoms: C13_17  and  C14_18
REMARK    7  A    between atoms: C15_20  and  C16_21
REMARK                            x       y       z     vdW  Elec       q    Type
REMARK                         _______ _______ _______ _____ _____    ______ ____
ROOT
ATOM      1  C3  UNL     1      62.823  51.300  68.856  0.00  0.00    +0.000 A 
ATOM      2  C4  UNL     1      62.082  51.572  67.700  0.00  0.00    +0.000 A 
ATOM      3  C5  UNL     1      60.891  52.299  67.773  0.00  0.00    +0.000 A 
ATOM      4  C6  UNL     1      60.395  52.750  69.014  0.00  0.00    +0.000 A 
ATOM      5  C7  UNL     1      61.188  52.536  70.170  0.00  0.00    +0.000 A 
ATOM      6  C8  UNL     1      62.367  51.780  70.088  0.00  0.00    +0.000 A 
ATOM      7  C9  UNL     1      60.782  53.118  71.500  0.00  0.00    +0.000 C 
ATOM      8  C10 UNL     1      59.960  54.400  71.304  0.00  0.00    +0.000 C 
ATOM      9  C22 UNL     1      58.736  54.060  70.410  0.00  0.00    +0.000 C 
ATOM     10  C23 UNL     1      57.685  55.201  70.241  0.00  0.00    +0.000 C 
ATOM     11  C24 UNL     1      56.482  54.659  69.477  0.00  0.00    +0.000 C 
ATOM     12  C25 UNL     1      56.967  54.211  68.099  0.00  0.00    +0.000 C 
ATOM     13  C26 UNL     1      58.003  53.079  68.232  0.00  0.00    +0.000 C 
ATOM     14  N5  UNL     1      59.126  53.461  69.114  0.00  0.00    +0.000 N 
ATOM     15  C27 UNL     1      57.527  55.410  67.297  0.00  0.00    +0.000 C 
ATOM     16  N6  UNL     1      58.231  56.432  68.109  0.00  0.00    +0.000 N 
ATOM     17  C28 UNL     1      58.210  56.406  69.488  0.00  0.00    +0.000 A 
ATOM     18  C29 UNL     1      58.653  57.521  70.216  0.00  0.00    +0.000 A 
ATOM     19  C30 UNL     1      59.205  58.610  69.552  0.00  0.00    +0.000 A 
ATOM     20  C31 UNL     1      59.289  58.598  68.166  0.00  0.00    +0.000 A 
ATOM     21  C32 UNL     1      58.779  57.509  67.451  0.00  0.00    +0.000 A 
ATOM     22  O4  UNL     1      58.808  57.544  66.190  0.00  0.00    +0.000 OA
ENDROOT
BRANCH   1  26
ATOM     23  C1  UNL     1      65.387  48.420  69.284  0.00  0.00    +0.000 C 
ATOM     24  C2  UNL     1      64.070  49.114  69.145  0.00  0.00    +0.000 C 
ATOM     25  O1  UNL     1      63.005  48.450  69.275  0.00  0.00    +0.000 OA
ATOM     26  N1  UNL     1      64.020  50.507  68.805  0.00  0.00    +0.000 N 
ATOM     27  H4  UNL     1      64.888  50.952  68.432  0.00  0.00    +0.000 HD
ENDBRANCH   1  26
BRANCH   8  28
ATOM     28  C11 UNL     1      60.856  55.509  70.784  0.00  0.00    +0.000 C 
ATOM     29  O2  UNL     1      61.144  55.576  69.558  0.00  0.00    +0.000 OA
ATOM     30  N2  UNL     1      61.414  56.464  71.698  0.00  0.00    +0.000 N 
ATOM     31  H11 UNL     1      61.039  56.498  72.674  0.00  0.00    +0.000 HD
BRANCH  30  32
ATOM     32  C12 UNL     1      62.472  57.390  71.288  0.00  0.00    +0.000 C 
BRANCH  32  33
ATOM     33  C13 UNL     1      63.737  57.220  72.137  0.00  0.00    +0.000 C 
BRANCH  33  34
ATOM     34  C14 UNL     1      63.710  55.957  72.938  0.00  0.00    +0.000 A 
ATOM     35  N3  UNL     1      63.849  54.730  72.403  0.00  0.00    +0.000 NA
ATOM     36  C15 UNL     1      63.766  53.949  73.498  0.00  0.00    +0.000 A 
ATOM     37  N4  UNL     1      63.589  54.666  74.627  0.00  0.00    +0.000 NA
ATOM     38  O3  UNL     1      63.562  55.903  74.239  0.00  0.00    +0.000 OA
BRANCH  36  39
ATOM     39  C16 UNL     1      63.858  52.473  73.460  0.00  0.00    +0.000 A 
ATOM     40  C17 UNL     1      64.800  51.840  72.628  0.00  0.00    +0.000 A 
ATOM     41  C18 UNL     1      64.882  50.445  72.585  0.00  0.00    +0.000 A 
ATOM     42  C19 UNL     1      64.024  49.668  73.366  0.00  0.00    +0.000 A 
ATOM     43  C20 UNL     1      63.084  50.286  74.195  0.00  0.00    +0.000 A 
ATOM     44  C21 UNL     1      63.000  51.682  74.244  0.00  0.00    +0.000 A 
ENDBRANCH  36  39
ENDBRANCH  33  34
ENDBRANCH  32  33
ENDBRANCH  30  32
ENDBRANCH   8  28
TORSDOF 6
ENDMDL
MODEL 9
REMARK VINA RESULT:    -7.783      2.615      6.508
REMARK INTER + INTRA:         -11.735
REMARK INTER:                 -10.715
REMARK INTRA:                  -1.020
REMARK UNBOUND:                -1.223
REMARK  Name = CNP0112283_1.pdb
REMARK  7 active torsions:
REMARK  status: ('A' for Active; 'I' for Inactive)
REMARK    1  A    between atoms: C1_1  and  C2_2
REMARK    2  A    between atoms: N1_4  and  C3_5
REMARK    3  A    between atoms: C10_12  and  C11_13
REMARK    4  A    between atoms: N2_15  and  C12_16
REMARK    5  A    between atoms: C12_16  and  C13_17
REMARK    6  A    between atoms: C13_17  and  C14_18
REMARK    7  A    between atoms: C15_20  and  C16_21
REMARK                            x       y       z     vdW  Elec       q    Type
REMARK                         _______ _______ _______ _____ _____    ______ ____
ROOT
ATOM      1  C3  UNL     1      57.147  53.616  76.079  0.00  0.00    +0.000 A 
ATOM      2  C4  UNL     1      58.412  53.780  76.658  0.00  0.00    +0.000 A 
ATOM      3  C5  UNL     1      59.566  53.721  75.873  0.00  0.00    +0.000 A 
ATOM      4  C6  UNL     1      59.486  53.468  74.488  0.00  0.00    +0.000 A 
ATOM      5  C7  UNL     1      58.200  53.378  73.897  0.00  0.00    +0.000 A 
ATOM      6  C8  UNL     1      57.049  53.409  74.699  0.00  0.00    +0.000 A 
ATOM      7  C9  UNL     1      58.047  53.251  72.402  0.00  0.00    +0.000 C 
ATOM      8  C10 UNL     1      59.231  53.908  71.677  0.00  0.00    +0.000 C 
ATOM      9  C22 UNL     1      60.540  53.253  72.194  0.00  0.00    +0.000 C 
ATOM     10  C23 UNL     1      61.845  53.670  71.446  0.00  0.00    +0.000 C 
ATOM     11  C24 UNL     1      63.005  52.825  71.963  0.00  0.00    +0.000 C 
ATOM     12  C25 UNL     1      63.164  53.115  73.455  0.00  0.00    +0.000 C 
ATOM     13  C26 UNL     1      61.893  52.708  74.224  0.00  0.00    +0.000 C 
ATOM     14  N5  UNL     1      60.683  53.347  73.665  0.00  0.00    +0.000 N 
ATOM     15  C27 UNL     1      63.527  54.600  73.691  0.00  0.00    +0.000 C 
ATOM     16  N6  UNL     1      62.902  55.555  72.745  0.00  0.00    +0.000 N 
ATOM     17  C28 UNL     1      62.213  55.127  71.629  0.00  0.00    +0.000 A 
ATOM     18  C29 UNL     1      61.868  56.045  70.625  0.00  0.00    +0.000 A 
ATOM     19  C30 UNL     1      62.130  57.398  70.800  0.00  0.00    +0.000 A 
ATOM     20  C31 UNL     1      62.760  57.830  71.960  0.00  0.00    +0.000 A 
ATOM     21  C32 UNL     1      63.160  56.895  72.920  0.00  0.00    +0.000 A 
ATOM     22  O4  UNL     1      63.785  57.301  73.938  0.00  0.00    +0.000 OA
ENDROOT
BRANCH   1  26
ATOM     23  C1  UNL     1      54.127  54.751  78.234  0.00  0.00    +0.000 C 
ATOM     24  C2  UNL     1      55.220  54.805  77.214  0.00  0.00    +0.000 C 
ATOM     25  O1  UNL     1      55.451  55.890  76.613  0.00  0.00    +0.000 OA
ATOM     26  N1  UNL     1      55.955  53.619  76.880  0.00  0.00    +0.000 N 
ATOM     27  H4  UNL     1      55.562  52.698  77.177  0.00  0.00    +0.000 HD
ENDBRANCH   1  26
BRANCH   8  28
ATOM     28  C11 UNL     1      59.153  55.416  71.832  0.00  0.00    +0.000 C 
ATOM     29  O2  UNL     1      59.510  55.967  72.909  0.00  0.00    +0.000 OA
ATOM     30  N2  UNL     1      58.632  56.217  70.762  0.00  0.00    +0.000 N 
ATOM     31  H11 UNL     1      58.498  55.773  69.826  0.00  0.00    +0.000 HD
BRANCH  30  32
ATOM     32  C12 UNL     1      58.306  57.633  70.954  0.00  0.00    +0.000 C 
BRANCH  32  33
ATOM     33  C13 UNL     1      58.166  58.370  69.617  0.00  0.00    +0.000 C 
BRANCH  33  34
ATOM     34  C14 UNL     1      58.666  57.551  68.469  0.00  0.00    +0.000 A 
ATOM     35  N3  UNL     1      57.874  56.779  67.703  0.00  0.00    +0.000 NA
ATOM     36  C15 UNL     1      58.763  56.268  66.828  0.00  0.00    +0.000 A 
ATOM     37  N4  UNL     1      60.017  56.711  67.055  0.00  0.00    +0.000 NA
ATOM     38  O3  UNL     1      59.914  57.503  68.076  0.00  0.00    +0.000 OA
BRANCH  36  39
ATOM     39  C16 UNL     1      58.399  55.329  65.745  0.00  0.00    +0.000 A 
ATOM     40  C17 UNL     1      58.058  53.996  66.044  0.00  0.00    +0.000 A 
ATOM     41  C18 UNL     1      57.722  53.105  65.020  0.00  0.00    +0.000 A 
ATOM     42  C19 UNL     1      57.727  53.531  63.690  0.00  0.00    +0.000 A 
ATOM     43  C20 UNL     1      58.064  54.852  63.382  0.00  0.00    +0.000 A 
ATOM     44  C21 UNL     1      58.398  55.749  64.404  0.00  0.00    +0.000 A 
ENDBRANCH  36  39
ENDBRANCH  33  34
ENDBRANCH  32  33
ENDBRANCH  30  32
ENDBRANCH   8  28
TORSDOF 6
ENDMDL
MODEL 10
REMARK VINA RESULT:    -7.746      2.479      7.794
REMARK INTER + INTRA:         -11.686
REMARK INTER:                 -10.582
REMARK INTRA:                  -1.104
REMARK UNBOUND:                -1.223
REMARK  Name = CNP0112283_1.pdb
REMARK  7 active torsions:
REMARK  status: ('A' for Active; 'I' for Inactive)
REMARK    1  A    between atoms: C1_1  and  C2_2
REMARK    2  A    between atoms: N1_4  and  C3_5
REMARK    3  A    between atoms: C10_12  and  C11_13
REMARK    4  A    between atoms: N2_15  and  C12_16
REMARK    5  A    between atoms: C12_16  and  C13_17
REMARK    6  A    between atoms: C13_17  and  C14_18
REMARK    7  A    between atoms: C15_20  and  C16_21
REMARK                            x       y       z     vdW  Elec       q    Type
REMARK                         _______ _______ _______ _____ _____    ______ ____
ROOT
ATOM      1  C3  UNL     1      59.871  54.307  66.455  0.00  0.00    +0.000 A 
ATOM      2  C4  UNL     1      60.479  55.560  66.598  0.00  0.00    +0.000 A 
ATOM      3  C5  UNL     1      60.525  56.191  67.844  0.00  0.00    +0.000 A 
ATOM      4  C6  UNL     1      59.937  55.593  68.978  0.00  0.00    +0.000 A 
ATOM      5  C7  UNL     1      59.390  54.291  68.842  0.00  0.00    +0.000 A 
ATOM      6  C8  UNL     1      59.323  53.682  67.580  0.00  0.00    +0.000 A 
ATOM      7  C9  UNL     1      58.876  53.543  70.045  0.00  0.00    +0.000 C 
ATOM      8  C10 UNL     1      59.616  53.984  71.316  0.00  0.00    +0.000 C 
ATOM      9  C22 UNL     1      59.453  55.522  71.464  0.00  0.00    +0.000 C 
ATOM     10  C23 UNL     1      59.992  56.134  72.794  0.00  0.00    +0.000 C 
ATOM     11  C24 UNL     1      59.613  57.611  72.851  0.00  0.00    +0.000 C 
ATOM     12  C25 UNL     1      60.281  58.308  71.667  0.00  0.00    +0.000 C 
ATOM     13  C26 UNL     1      59.764  57.730  70.336  0.00  0.00    +0.000 C 
ATOM     14  N5  UNL     1      59.928  56.263  70.273  0.00  0.00    +0.000 N 
ATOM     15  C27 UNL     1      61.822  58.218  71.772  0.00  0.00    +0.000 C 
ATOM     16  N6  UNL     1      62.336  56.958  72.361  0.00  0.00    +0.000 N 
ATOM     17  C28 UNL     1      61.496  56.033  72.946  0.00  0.00    +0.000 A 
ATOM     18  C29 UNL     1      62.031  54.993  73.721  0.00  0.00    +0.000 A 
ATOM     19  C30 UNL     1      63.408  54.836  73.818  0.00  0.00    +0.000 A 
ATOM     20  C31 UNL     1      64.248  55.730  73.166  0.00  0.00    +0.000 A 
ATOM     21  C32 UNL     1      63.699  56.802  72.455  0.00  0.00    +0.000 A 
ATOM     22  O4  UNL     1      64.479  57.638  71.922  0.00  0.00    +0.000 OA
ENDROOT
BRANCH   1  26
ATOM     23  C1  UNL     1      58.491  52.899  63.114  0.00  0.00    +0.000 C 
ATOM     24  C2  UNL     1      58.612  53.769  64.324  0.00  0.00    +0.000 C 
ATOM     25  O1  UNL     1      57.716  54.626  64.561  0.00  0.00    +0.000 OA
ATOM     26  N1  UNL     1      59.766  53.672  65.171  0.00  0.00    +0.000 N 
ATOM     27  H4  UNL     1      60.603  53.169  64.803  0.00  0.00    +0.000 HD
ENDBRANCH   1  26
BRANCH   8  28
ATOM     28  C11 UNL     1      61.049  53.484  71.276  0.00  0.00    +0.000 C 
ATOM     29  O2  UNL     1      61.898  54.040  70.527  0.00  0.00    +0.000 OA
ATOM     30  N2  UNL     1      61.430  52.346  72.061  0.00  0.00    +0.000 N 
ATOM     31  H11 UNL     1      60.769  52.002  72.794  0.00  0.00    +0.000 HD
BRANCH  30  32
ATOM     32  C12 UNL     1      62.719  51.678  71.868  0.00  0.00    +0.000 C 
BRANCH  32  33
ATOM     33  C13 UNL     1      62.995  50.644  72.965  0.00  0.00    +0.000 C 
BRANCH  33  34
ATOM     34  C14 UNL     1      63.194  51.284  74.302  0.00  0.00    +0.000 A 
ATOM     35  N3  UNL     1      62.184  51.656  75.109  0.00  0.00    +0.000 NA
ATOM     36  C15 UNL     1      62.854  52.157  76.165  0.00  0.00    +0.000 A 
ATOM     37  N4  UNL     1      64.192  52.088  76.002  0.00  0.00    +0.000 NA
ATOM     38  O3  UNL     1      64.361  51.540  74.839  0.00  0.00    +0.000 OA
BRANCH  36  39
ATOM     39  C16 UNL     1      62.194  52.719  77.363  0.00  0.00    +0.000 A 
ATOM     40  C17 UNL     1      60.883  53.225  77.281  0.00  0.00    +0.000 A 
ATOM     41  C18 UNL     1      60.260  53.764  78.412  0.00  0.00    +0.000 A 
ATOM     42  C19 UNL     1      60.939  53.809  79.631  0.00  0.00    +0.000 A 
ATOM     43  C20 UNL     1      62.242  53.310  79.724  0.00  0.00    +0.000 A 
ATOM     44  C21 UNL     1      62.868  52.766  78.596  0.00  0.00    +0.000 A 
ENDBRANCH  36  39
ENDBRANCH  33  34
ENDBRANCH  32  33
ENDBRANCH  30  32
ENDBRANCH   8  28
TORSDOF 6
ENDMDL
