MODEL 1
REMARK VINA RESULT:    -7.830      0.000      0.000
REMARK INTER + INTRA:         -11.121
REMARK INTER:                  -9.661
REMARK INTRA:                  -1.460
REMARK UNBOUND:                -1.460
REMARK  Name = CNP0489376_1.pdb
REMARK  6 active torsions:
REMARK  status: ('A' for Active; 'I' for Inactive)
REMARK    1  A    between atoms: C1_1  and  C2_2
REMARK    2  A    between atoms: C14_16  and  C15_17
REMARK    3  A    between atoms: C15_17  and  N1_18
REMARK    4  A    between atoms: N1_18  and  C16_19
REMARK    5  A    between atoms: C27_32  and  O4_33
REMARK    6  A    between atoms: C28_34  and  O5_35
REMARK                            x       y       z     vdW  Elec       q    Type
REMARK                         _______ _______ _______ _____ _____    ______ ____
ROOT
ATOM      1  C16 UNL     1      19.397  38.154  38.044  0.00  0.00    +0.000 A 
ATOM      2  C17 UNL     1      19.722  39.490  38.391  0.00  0.00    +0.000 A 
ATOM      3  C18 UNL     1      19.774  40.498  37.415  0.00  0.00    +0.000 A 
ATOM      4  C19 UNL     1      19.494  40.165  36.091  0.00  0.00    +0.000 A 
ATOM      5  C20 UNL     1      19.512  41.037  34.926  0.00  0.00    +0.000 C 
ATOM      6  O3  UNL     1      19.775  42.266  34.978  0.00  0.00    +0.000 OA
ATOM      7  S1  UNL     1      19.124  40.176  33.396  0.00  0.00    +0.000 S 
ATOM      8  C21 UNL     1      18.950  38.679  34.395  0.00  0.00    +0.000 A 
ATOM      9  C22 UNL     1      19.177  38.878  35.744  0.00  0.00    +0.000 A 
ATOM     10  C23 UNL     1      19.126  37.842  36.685  0.00  0.00    +0.000 A 
ATOM     11  C24 UNL     1      18.852  36.542  36.212  0.00  0.00    +0.000 A 
ATOM     12  C25 UNL     1      18.617  36.317  34.839  0.00  0.00    +0.000 A 
ATOM     13  C26 UNL     1      18.652  37.393  33.917  0.00  0.00    +0.000 A 
ATOM     14  C27 UNL     1      18.494  37.118  32.437  0.00  0.00    +0.000 C 
ATOM     15  C28 UNL     1      17.584  35.887  32.187  0.00  0.00    +0.000 C 
ATOM     16  C29 UNL     1      17.918  34.737  33.106  0.00  0.00    +0.000 C 
ATOM     17  C30 UNL     1      18.344  34.949  34.355  0.00  0.00    +0.000 C 
ENDROOT
BRANCH   1  18
ATOM     18  N1  UNL     1      19.335  37.138  39.061  0.00  0.00    +0.000 N 
ATOM     19  H14 UNL     1      18.403  36.794  39.381  0.00  0.00    +0.000 HD
BRANCH  18  20
ATOM     20  C15 UNL     1      20.520  36.493  39.628  0.00  0.00    +0.000 C 
BRANCH  20  36
ATOM     21  C1  UNL     1      21.035  32.884  36.058  0.00  0.00    +0.000 C 
ATOM     22  C2  UNL     1      21.127  33.281  37.503  0.00  0.00    +0.000 C 
ATOM     23  C3  UNL     1      21.164  32.326  38.451  0.00  0.00    +0.000 C 
ATOM     24  C4  UNL     1      21.243  32.679  39.884  0.00  0.00    +0.000 C 
ATOM     25  O1  UNL     1      21.273  31.767  40.753  0.00  0.00    +0.000 OA
ATOM     26  C5  UNL     1      21.331  34.125  40.304  0.00  0.00    +0.000 C 
ATOM     27  C6  UNL     1      22.793  34.520  40.371  0.00  0.00    +0.000 A 
ATOM     28  C7  UNL     1      23.500  34.390  41.578  0.00  0.00    +0.000 A 
ATOM     29  C8  UNL     1      24.858  34.709  41.635  0.00  0.00    +0.000 A 
ATOM     30  C9  UNL     1      25.525  35.149  40.489  0.00  0.00    +0.000 A 
ATOM     31  C10 UNL     1      24.836  35.273  39.279  0.00  0.00    +0.000 A 
ATOM     32  C11 UNL     1      23.469  34.957  39.207  0.00  0.00    +0.000 A 
ATOM     33  C12 UNL     1      22.714  35.111  37.937  0.00  0.00    +0.000 C 
ATOM     34  O2  UNL     1      23.293  35.507  36.890  0.00  0.00    +0.000 OA
ATOM     35  C13 UNL     1      21.247  34.749  37.882  0.00  0.00    +0.000 C 
ATOM     36  C14 UNL     1      20.578  34.990  39.260  0.00  0.00    +0.000 C 
ENDBRANCH  20  36
ENDBRANCH  18  20
ENDBRANCH   1  18
BRANCH  14  37
ATOM     37  O4  UNL     1      19.767  36.892  31.890  0.00  0.00    +0.000 OA
ATOM     38  H19 UNL     1      20.250  37.759  31.916  0.00  0.00    +0.000 HD
ENDBRANCH  14  37
BRANCH  15  39
ATOM     39  O5  UNL     1      16.227  36.234  32.319  0.00  0.00    +0.000 OA
ATOM     40  H21 UNL     1      16.078  37.077  31.816  0.00  0.00    +0.000 HD
ENDBRANCH  15  39
TORSDOF 5
ENDMDL
MODEL 2
REMARK VINA RESULT:    -7.691      2.926      5.845
REMARK INTER + INTRA:         -10.950
REMARK INTER:                  -9.687
REMARK INTRA:                  -1.262
REMARK UNBOUND:                -1.460
REMARK  Name = CNP0489376_1.pdb
REMARK  6 active torsions:
REMARK  status: ('A' for Active; 'I' for Inactive)
REMARK    1  A    between atoms: C1_1  and  C2_2
REMARK    2  A    between atoms: C14_16  and  C15_17
REMARK    3  A    between atoms: C15_17  and  N1_18
REMARK    4  A    between atoms: N1_18  and  C16_19
REMARK    5  A    between atoms: C27_32  and  O4_33
REMARK    6  A    between atoms: C28_34  and  O5_35
REMARK                            x       y       z     vdW  Elec       q    Type
REMARK                         _______ _______ _______ _____ _____    ______ ____
ROOT
ATOM      1  C16 UNL     1      17.676  37.733  33.570  0.00  0.00    +0.000 A 
ATOM      2  C17 UNL     1      16.676  36.909  32.994  0.00  0.00    +0.000 A 
ATOM      3  C18 UNL     1      15.636  37.462  32.229  0.00  0.00    +0.000 A 
ATOM      4  C19 UNL     1      15.603  38.842  32.039  0.00  0.00    +0.000 A 
ATOM      5  C20 UNL     1      14.615  39.622  31.310  0.00  0.00    +0.000 C 
ATOM      6  O3  UNL     1      13.629  39.116  30.713  0.00  0.00    +0.000 OA
ATOM      7  S1  UNL     1      14.942  41.389  31.352  0.00  0.00    +0.000 S 
ATOM      8  C21 UNL     1      16.399  40.998  32.347  0.00  0.00    +0.000 A 
ATOM      9  C22 UNL     1      16.565  39.648  32.589  0.00  0.00    +0.000 A 
ATOM     10  C23 UNL     1      17.612  39.137  33.367  0.00  0.00    +0.000 A 
ATOM     11  C24 UNL     1      18.512  40.060  33.938  0.00  0.00    +0.000 A 
ATOM     12  C25 UNL     1      18.361  41.443  33.703  0.00  0.00    +0.000 A 
ATOM     13  C26 UNL     1      17.305  41.924  32.891  0.00  0.00    +0.000 A 
ATOM     14  C27 UNL     1      17.101  43.415  32.730  0.00  0.00    +0.000 C 
ATOM     15  C28 UNL     1      18.447  44.180  32.817  0.00  0.00    +0.000 C 
ATOM     16  C29 UNL     1      19.310  43.684  33.952  0.00  0.00    +0.000 C 
ATOM     17  C30 UNL     1      19.303  42.399  34.318  0.00  0.00    +0.000 C 
ENDROOT
BRANCH   1  18
ATOM     18  N1  UNL     1      18.741  37.146  34.337  0.00  0.00    +0.000 N 
ATOM     19  H14 UNL     1      19.614  36.843  33.850  0.00  0.00    +0.000 HD
BRANCH  18  20
ATOM     20  C15 UNL     1      18.707  37.016  35.796  0.00  0.00    +0.000 C 
BRANCH  20  36
ATOM     21  C1  UNL     1      23.793  37.189  35.421  0.00  0.00    +0.000 C 
ATOM     22  C2  UNL     1      22.576  36.991  36.278  0.00  0.00    +0.000 C 
ATOM     23  C3  UNL     1      22.700  36.392  37.478  0.00  0.00    +0.000 C 
ATOM     24  C4  UNL     1      21.523  36.170  38.343  0.00  0.00    +0.000 C 
ATOM     25  O1  UNL     1      21.664  35.604  39.460  0.00  0.00    +0.000 OA
ATOM     26  C5  UNL     1      20.163  36.658  37.910  0.00  0.00    +0.000 C 
ATOM     27  C6  UNL     1      19.972  38.072  38.421  0.00  0.00    +0.000 A 
ATOM     28  C7  UNL     1      19.373  38.293  39.671  0.00  0.00    +0.000 A 
ATOM     29  C8  UNL     1      19.237  39.591  40.167  0.00  0.00    +0.000 A 
ATOM     30  C9  UNL     1      19.705  40.679  39.426  0.00  0.00    +0.000 A 
ATOM     31  C10 UNL     1      20.312  40.473  38.184  0.00  0.00    +0.000 A 
ATOM     32  C11 UNL     1      20.456  39.172  37.672  0.00  0.00    +0.000 A 
ATOM     33  C12 UNL     1      21.072  38.937  36.341  0.00  0.00    +0.000 C 
ATOM     34  O2  UNL     1      21.500  39.902  35.653  0.00  0.00    +0.000 OA
ATOM     35  C13 UNL     1      21.228  37.527  35.820  0.00  0.00    +0.000 C 
ATOM     36  C14 UNL     1      20.093  36.620  36.362  0.00  0.00    +0.000 C 
ENDBRANCH  20  36
ENDBRANCH  18  20
ENDBRANCH   1  18
BRANCH  14  37
ATOM     37  O4  UNL     1      16.233  43.856  33.742  0.00  0.00    +0.000 OA
ATOM     38  H19 UNL     1      15.435  44.239  33.292  0.00  0.00    +0.000 HD
ENDBRANCH  14  37
BRANCH  15  39
ATOM     39  O5  UNL     1      19.150  44.094  31.601  0.00  0.00    +0.000 OA
ATOM     40  H21 UNL     1      18.669  44.646  30.931  0.00  0.00    +0.000 HD
ENDBRANCH  15  39
TORSDOF 5
ENDMDL
MODEL 3
REMARK VINA RESULT:    -7.509      2.868      7.776
REMARK INTER + INTRA:         -10.725
REMARK INTER:                  -9.031
REMARK INTRA:                  -1.694
REMARK UNBOUND:                -1.460
REMARK  Name = CNP0489376_1.pdb
REMARK  6 active torsions:
REMARK  status: ('A' for Active; 'I' for Inactive)
REMARK    1  A    between atoms: C1_1  and  C2_2
REMARK    2  A    between atoms: C14_16  and  C15_17
REMARK    3  A    between atoms: C15_17  and  N1_18
REMARK    4  A    between atoms: N1_18  and  C16_19
REMARK    5  A    between atoms: C27_32  and  O4_33
REMARK    6  A    between atoms: C28_34  and  O5_35
REMARK                            x       y       z     vdW  Elec       q    Type
REMARK                         _______ _______ _______ _____ _____    ______ ____
ROOT
ATOM      1  C16 UNL     1      23.802  37.145  35.793  0.00  0.00    +0.000 A 
ATOM      2  C17 UNL     1      25.047  37.180  35.116  0.00  0.00    +0.000 A 
ATOM      3  C18 UNL     1      26.110  36.353  35.512  0.00  0.00    +0.000 A 
ATOM      4  C19 UNL     1      25.920  35.486  36.586  0.00  0.00    +0.000 A 
ATOM      5  C20 UNL     1      26.882  34.566  37.174  0.00  0.00    +0.000 C 
ATOM      6  O3  UNL     1      28.057  34.419  36.749  0.00  0.00    +0.000 OA
ATOM      7  S1  UNL     1      26.222  33.661  38.580  0.00  0.00    +0.000 S 
ATOM      8  C21 UNL     1      24.677  34.559  38.311  0.00  0.00    +0.000 A 
ATOM      9  C22 UNL     1      24.721  35.442  37.248  0.00  0.00    +0.000 A 
ATOM     10  C23 UNL     1      23.641  36.258  36.891  0.00  0.00    +0.000 A 
ATOM     11  C24 UNL     1      22.474  36.179  37.677  0.00  0.00    +0.000 A 
ATOM     12  C25 UNL     1      22.407  35.284  38.767  0.00  0.00    +0.000 A 
ATOM     13  C26 UNL     1      23.510  34.454  39.085  0.00  0.00    +0.000 A 
ATOM     14  C27 UNL     1      23.456  33.572  40.315  0.00  0.00    +0.000 C 
ATOM     15  C28 UNL     1      22.005  33.115  40.616  0.00  0.00    +0.000 C 
ATOM     16  C29 UNL     1      21.015  34.247  40.491  0.00  0.00    +0.000 C 
ATOM     17  C30 UNL     1      21.183  35.220  39.590  0.00  0.00    +0.000 C 
ENDROOT
BRANCH   1  18
ATOM     18  N1  UNL     1      22.721  37.991  35.363  0.00  0.00    +0.000 N 
ATOM     19  H14 UNL     1      22.741  39.006  35.603  0.00  0.00    +0.000 HD
BRANCH  18  20
ATOM     20  C15 UNL     1      21.614  37.520  34.527  0.00  0.00    +0.000 C 
BRANCH  20  36
ATOM     21  C1  UNL     1      16.953  38.873  32.953  0.00  0.00    +0.000 C 
ATOM     22  C2  UNL     1      18.162  39.176  33.790  0.00  0.00    +0.000 C 
ATOM     23  C3  UNL     1      18.351  40.425  34.254  0.00  0.00    +0.000 C 
ATOM     24  C4  UNL     1      19.535  40.763  35.072  0.00  0.00    +0.000 C 
ATOM     25  O1  UNL     1      19.692  41.940  35.492  0.00  0.00    +0.000 OA
ATOM     26  C5  UNL     1      20.531  39.691  35.440  0.00  0.00    +0.000 C 
ATOM     27  C6  UNL     1      20.101  39.063  36.751  0.00  0.00    +0.000 A 
ATOM     28  C7  UNL     1      20.585  39.574  37.966  0.00  0.00    +0.000 A 
ATOM     29  C8  UNL     1      20.157  39.029  39.178  0.00  0.00    +0.000 A 
ATOM     30  C9  UNL     1      19.238  37.977  39.190  0.00  0.00    +0.000 A 
ATOM     31  C10 UNL     1      18.741  37.465  37.988  0.00  0.00    +0.000 A 
ATOM     32  C11 UNL     1      19.162  38.004  36.760  0.00  0.00    +0.000 A 
ATOM     33  C12 UNL     1      18.667  37.453  35.472  0.00  0.00    +0.000 C 
ATOM     34  O2  UNL     1      17.838  36.504  35.457  0.00  0.00    +0.000 OA
ATOM     35  C13 UNL     1      19.125  38.060  34.166  0.00  0.00    +0.000 C 
ATOM     36  C14 UNL     1      20.559  38.632  34.307  0.00  0.00    +0.000 C 
ENDBRANCH  20  36
ENDBRANCH  18  20
ENDBRANCH   1  18
BRANCH  14  37
ATOM     37  O4  UNL     1      23.965  34.298  41.403  0.00  0.00    +0.000 OA
ATOM     38  H19 UNL     1      24.208  33.637  42.103  0.00  0.00    +0.000 HD
ENDBRANCH  14  37
BRANCH  15  39
ATOM     39  O5  UNL     1      21.632  32.051  39.774  0.00  0.00    +0.000 OA
ATOM     40  H21 UNL     1      22.362  31.379  39.792  0.00  0.00    +0.000 HD
ENDBRANCH  15  39
TORSDOF 5
ENDMDL
MODEL 4
REMARK VINA RESULT:    -7.387      2.667      7.480
REMARK INTER + INTRA:         -10.575
REMARK INTER:                  -8.795
REMARK INTRA:                  -1.780
REMARK UNBOUND:                -1.460
REMARK  Name = CNP0489376_1.pdb
REMARK  6 active torsions:
REMARK  status: ('A' for Active; 'I' for Inactive)
REMARK    1  A    between atoms: C1_1  and  C2_2
REMARK    2  A    between atoms: C14_16  and  C15_17
REMARK    3  A    between atoms: C15_17  and  N1_18
REMARK    4  A    between atoms: N1_18  and  C16_19
REMARK    5  A    between atoms: C27_32  and  O4_33
REMARK    6  A    between atoms: C28_34  and  O5_35
REMARK                            x       y       z     vdW  Elec       q    Type
REMARK                         _______ _______ _______ _____ _____    ______ ____
ROOT
ATOM      1  C16 UNL     1      19.877  35.195  33.558  0.00  0.00    +0.000 A 
ATOM      2  C17 UNL     1      18.900  34.419  32.882  0.00  0.00    +0.000 A 
ATOM      3  C18 UNL     1      18.333  33.286  33.486  0.00  0.00    +0.000 A 
ATOM      4  C19 UNL     1      18.743  32.933  34.771  0.00  0.00    +0.000 A 
ATOM      5  C20 UNL     1      18.309  31.797  35.568  0.00  0.00    +0.000 C 
ATOM      6  O3  UNL     1      17.451  30.961  35.183  0.00  0.00    +0.000 OA
ATOM      7  S1  UNL     1      19.131  31.702  37.164  0.00  0.00    +0.000 S 
ATOM      8  C21 UNL     1      20.020  33.201  36.688  0.00  0.00    +0.000 A 
ATOM      9  C22 UNL     1      19.684  33.676  35.434  0.00  0.00    +0.000 A 
ATOM     10  C23 UNL     1      20.282  34.807  34.863  0.00  0.00    +0.000 A 
ATOM     11  C24 UNL     1      21.285  35.462  35.606  0.00  0.00    +0.000 A 
ATOM     12  C25 UNL     1      21.643  34.994  36.888  0.00  0.00    +0.000 A 
ATOM     13  C26 UNL     1      21.000  33.862  37.447  0.00  0.00    +0.000 A 
ATOM     14  C27 UNL     1      21.464  33.317  38.781  0.00  0.00    +0.000 C 
ATOM     15  C28 UNL     1      22.014  34.447  39.690  0.00  0.00    +0.000 C 
ATOM     16  C29 UNL     1      22.919  35.392  38.938  0.00  0.00    +0.000 C 
ATOM     17  C30 UNL     1      22.704  35.682  37.651  0.00  0.00    +0.000 C 
ENDROOT
BRANCH   1  18
ATOM     18  N1  UNL     1      20.435  36.361  32.928  0.00  0.00    +0.000 N 
ATOM     19  H14 UNL     1      20.382  36.454  31.889  0.00  0.00    +0.000 HD
BRANCH  18  20
ATOM     20  C15 UNL     1      21.014  37.480  33.674  0.00  0.00    +0.000 C 
BRANCH  20  36
ATOM     21  C1  UNL     1      16.324  39.371  32.993  0.00  0.00    +0.000 C 
ATOM     22  C2  UNL     1      17.678  39.498  33.629  0.00  0.00    +0.000 C 
ATOM     23  C3  UNL     1      18.069  40.687  34.124  0.00  0.00    +0.000 C 
ATOM     24  C4  UNL     1      19.399  40.853  34.746  0.00  0.00    +0.000 C 
ATOM     25  O1  UNL     1      19.743  41.977  35.200  0.00  0.00    +0.000 OA
ATOM     26  C5  UNL     1      20.325  39.670  34.879  0.00  0.00    +0.000 C 
ATOM     27  C6  UNL     1      20.053  38.990  36.206  0.00  0.00    +0.000 A 
ATOM     28  C7  UNL     1      20.779  39.363  37.348  0.00  0.00    +0.000 A 
ATOM     29  C8  UNL     1      20.501  38.773  38.583  0.00  0.00    +0.000 A 
ATOM     30  C9  UNL     1      19.492  37.812  38.690  0.00  0.00    +0.000 A 
ATOM     31  C10 UNL     1      18.755  37.438  37.563  0.00  0.00    +0.000 A 
ATOM     32  C11 UNL     1      19.023  38.024  36.314  0.00  0.00    +0.000 A 
ATOM     33  C12 UNL     1      18.270  37.617  35.100  0.00  0.00    +0.000 C 
ATOM     34  O2  UNL     1      17.356  36.753  35.172  0.00  0.00    +0.000 OA
ATOM     35  C13 UNL     1      18.569  38.273  33.772  0.00  0.00    +0.000 C 
ATOM     36  C14 UNL     1      20.058  38.698  33.700  0.00  0.00    +0.000 C 
ENDBRANCH  20  36
ENDBRANCH  18  20
ENDBRANCH   1  18
BRANCH  14  37
ATOM     37  O4  UNL     1      22.466  32.362  38.545  0.00  0.00    +0.000 OA
ATOM     38  H19 UNL     1      22.746  32.466  37.598  0.00  0.00    +0.000 HD
ENDBRANCH  14  37
BRANCH  15  39
ATOM     39  O5  UNL     1      20.961  35.161  40.291  0.00  0.00    +0.000 OA
ATOM     40  H21 UNL     1      21.243  36.110  40.369  0.00  0.00    +0.000 HD
ENDBRANCH  15  39
TORSDOF 5
ENDMDL
MODEL 5
REMARK VINA RESULT:    -7.318      1.555      2.610
REMARK INTER + INTRA:         -10.490
REMARK INTER:                  -8.823
REMARK INTRA:                  -1.667
REMARK UNBOUND:                -1.460
REMARK  Name = CNP0489376_1.pdb
REMARK  6 active torsions:
REMARK  status: ('A' for Active; 'I' for Inactive)
REMARK    1  A    between atoms: C1_1  and  C2_2
REMARK    2  A    between atoms: C14_16  and  C15_17
REMARK    3  A    between atoms: C15_17  and  N1_18
REMARK    4  A    between atoms: N1_18  and  C16_19
REMARK    5  A    between atoms: C27_32  and  O4_33
REMARK    6  A    between atoms: C28_34  and  O5_35
REMARK                            x       y       z     vdW  Elec       q    Type
REMARK                         _______ _______ _______ _____ _____    ______ ____
ROOT
ATOM      1  C16 UNL     1      20.081  37.618  38.817  0.00  0.00    +0.000 A 
ATOM      2  C17 UNL     1      20.185  38.997  39.132  0.00  0.00    +0.000 A 
ATOM      3  C18 UNL     1      20.035  39.979  38.139  0.00  0.00    +0.000 A 
ATOM      4  C19 UNL     1      19.777  39.576  36.830  0.00  0.00    +0.000 A 
ATOM      5  C20 UNL     1      19.611  40.413  35.652  0.00  0.00    +0.000 C 
ATOM      6  O3  UNL     1      19.663  41.670  35.676  0.00  0.00    +0.000 OA
ATOM      7  S1  UNL     1      19.330  39.467  34.150  0.00  0.00    +0.000 S 
ATOM      8  C21 UNL     1      19.443  37.984  35.177  0.00  0.00    +0.000 A 
ATOM      9  C22 UNL     1      19.673  38.246  36.514  0.00  0.00    +0.000 A 
ATOM     10  C23 UNL     1      19.826  37.236  37.473  0.00  0.00    +0.000 A 
ATOM     11  C24 UNL     1      19.763  35.900  37.030  0.00  0.00    +0.000 A 
ATOM     12  C25 UNL     1      19.529  35.609  35.669  0.00  0.00    +0.000 A 
ATOM     13  C26 UNL     1      19.353  36.656  34.729  0.00  0.00    +0.000 A 
ATOM     14  C27 UNL     1      19.200  36.327  33.259  0.00  0.00    +0.000 C 
ATOM     15  C28 UNL     1      18.506  34.955  33.059  0.00  0.00    +0.000 C 
ATOM     16  C29 UNL     1      19.057  33.898  33.985  0.00  0.00    +0.000 C 
ATOM     17  C30 UNL     1      19.478  34.205  35.215  0.00  0.00    +0.000 C 
ENDROOT
BRANCH   1  18
ATOM     18  N1  UNL     1      20.223  36.629  39.851  0.00  0.00    +0.000 N 
ATOM     19  H14 UNL     1      20.308  36.938  40.845  0.00  0.00    +0.000 HD
BRANCH  18  20
ATOM     20  C15 UNL     1      20.177  35.187  39.598  0.00  0.00    +0.000 C 
BRANCH  20  36
ATOM     21  C1  UNL     1      22.609  30.830  40.665  0.00  0.00    +0.000 C 
ATOM     22  C2  UNL     1      22.677  32.309  40.416  0.00  0.00    +0.000 C 
ATOM     23  C3  UNL     1      23.773  32.995  40.792  0.00  0.00    +0.000 C 
ATOM     24  C4  UNL     1      23.871  34.453  40.573  0.00  0.00    +0.000 C 
ATOM     25  O1  UNL     1      24.905  35.073  40.937  0.00  0.00    +0.000 OA
ATOM     26  C5  UNL     1      22.754  35.190  39.877  0.00  0.00    +0.000 C 
ATOM     27  C6  UNL     1      23.031  35.189  38.386  0.00  0.00    +0.000 A 
ATOM     28  C7  UNL     1      23.749  36.246  37.805  0.00  0.00    +0.000 A 
ATOM     29  C8  UNL     1      24.047  36.228  36.441  0.00  0.00    +0.000 A 
ATOM     30  C9  UNL     1      23.638  35.152  35.647  0.00  0.00    +0.000 A 
ATOM     31  C10 UNL     1      22.930  34.089  36.215  0.00  0.00    +0.000 A 
ATOM     32  C11 UNL     1      22.624  34.094  37.587  0.00  0.00    +0.000 A 
ATOM     33  C12 UNL     1      21.847  32.987  38.201  0.00  0.00    +0.000 C 
ATOM     34  O2  UNL     1      21.468  32.007  37.506  0.00  0.00    +0.000 OA
ATOM     35  C13 UNL     1      21.544  33.009  39.682  0.00  0.00    +0.000 C 
ATOM     36  C14 UNL     1      21.417  34.469  40.187  0.00  0.00    +0.000 C 
ENDBRANCH  20  36
ENDBRANCH  18  20
ENDBRANCH   1  18
BRANCH  14  37
ATOM     37  O4  UNL     1      20.476  36.309  32.675  0.00  0.00    +0.000 OA
ATOM     38  H19 UNL     1      20.407  35.763  31.848  0.00  0.00    +0.000 HD
ENDBRANCH  14  37
BRANCH  15  39
ATOM     39  O5  UNL     1      17.114  35.069  33.230  0.00  0.00    +0.000 OA
ATOM     40  H21 UNL     1      16.675  34.562  32.498  0.00  0.00    +0.000 HD
ENDBRANCH  15  39
TORSDOF 5
ENDMDL
MODEL 6
REMARK VINA RESULT:    -7.260      1.242      2.978
REMARK INTER + INTRA:         -10.417
REMARK INTER:                  -8.975
REMARK INTRA:                  -1.443
REMARK UNBOUND:                -1.460
REMARK  Name = CNP0489376_1.pdb
REMARK  6 active torsions:
REMARK  status: ('A' for Active; 'I' for Inactive)
REMARK    1  A    between atoms: C1_1  and  C2_2
REMARK    2  A    between atoms: C14_16  and  C15_17
REMARK    3  A    between atoms: C15_17  and  N1_18
REMARK    4  A    between atoms: N1_18  and  C16_19
REMARK    5  A    between atoms: C27_32  and  O4_33
REMARK    6  A    between atoms: C28_34  and  O5_35
REMARK                            x       y       z     vdW  Elec       q    Type
REMARK                         _______ _______ _______ _____ _____    ______ ____
ROOT
ATOM      1  C16 UNL     1      19.365  38.209  37.673  0.00  0.00    +0.000 A 
ATOM      2  C17 UNL     1      19.801  39.498  38.070  0.00  0.00    +0.000 A 
ATOM      3  C18 UNL     1      19.835  40.563  37.156  0.00  0.00    +0.000 A 
ATOM      4  C19 UNL     1      19.427  40.334  35.843  0.00  0.00    +0.000 A 
ATOM      5  C20 UNL     1      19.403  41.278  34.736  0.00  0.00    +0.000 C 
ATOM      6  O3  UNL     1      19.747  42.484  34.839  0.00  0.00    +0.000 OA
ATOM      7  S1  UNL     1      18.837  40.543  33.197  0.00  0.00    +0.000 S 
ATOM      8  C21 UNL     1      18.652  38.997  34.115  0.00  0.00    +0.000 A 
ATOM      9  C22 UNL     1      19.002  39.093  35.448  0.00  0.00    +0.000 A 
ATOM     10  C23 UNL     1      18.963  38.002  36.326  0.00  0.00    +0.000 A 
ATOM     11  C24 UNL     1      18.570  36.754  35.802  0.00  0.00    +0.000 A 
ATOM     12  C25 UNL     1      18.208  36.633  34.443  0.00  0.00    +0.000 A 
ATOM     13  C26 UNL     1      18.235  37.763  33.588  0.00  0.00    +0.000 A 
ATOM     14  C27 UNL     1      17.938  37.595  32.113  0.00  0.00    +0.000 C 
ATOM     15  C28 UNL     1      16.935  36.438  31.869  0.00  0.00    +0.000 C 
ATOM     16  C29 UNL     1      17.271  35.213  32.685  0.00  0.00    +0.000 C 
ATOM     17  C30 UNL     1      17.811  35.318  33.903  0.00  0.00    +0.000 C 
ENDROOT
BRANCH   1  18
ATOM     18  N1  UNL     1      19.323  37.134  38.628  0.00  0.00    +0.000 N 
ATOM     19  H14 UNL     1      18.412  36.665  38.828  0.00  0.00    +0.000 HD
BRANCH  18  20
ATOM     20  C15 UNL     1      20.514  36.599  39.291  0.00  0.00    +0.000 C 
BRANCH  20  36
ATOM     21  C1  UNL     1      25.396  35.529  38.259  0.00  0.00    +0.000 C 
ATOM     22  C2  UNL     1      23.946  35.381  37.897  0.00  0.00    +0.000 C 
ATOM     23  C3  UNL     1      23.611  34.968  36.660  0.00  0.00    +0.000 C 
ATOM     24  C4  UNL     1      22.194  34.822  36.266  0.00  0.00    +0.000 C 
ATOM     25  O1  UNL     1      21.905  34.437  35.101  0.00  0.00    +0.000 OA
ATOM     26  C5  UNL     1      21.098  35.089  37.266  0.00  0.00    +0.000 C 
ATOM     27  C6  UNL     1      20.781  33.796  37.992  0.00  0.00    +0.000 A 
ATOM     28  C7  UNL     1      19.779  32.944  37.502  0.00  0.00    +0.000 A 
ATOM     29  C8  UNL     1      19.514  31.730  38.140  0.00  0.00    +0.000 A 
ATOM     30  C9  UNL     1      20.252  31.352  39.265  0.00  0.00    +0.000 A 
ATOM     31  C10 UNL     1      21.259  32.187  39.757  0.00  0.00    +0.000 A 
ATOM     32  C11 UNL     1      21.536  33.411  39.125  0.00  0.00    +0.000 A 
ATOM     33  C12 UNL     1      22.583  34.324  39.652  0.00  0.00    +0.000 C 
ATOM     34  O2  UNL     1      23.261  34.006  40.665  0.00  0.00    +0.000 OA
ATOM     35  C13 UNL     1      22.872  35.629  38.945  0.00  0.00    +0.000 C 
ATOM     36  C14 UNL     1      21.590  36.170  38.262  0.00  0.00    +0.000 C 
ENDBRANCH  20  36
ENDBRANCH  18  20
ENDBRANCH   1  18
BRANCH  14  37
ATOM     37  O4  UNL     1      19.145  37.332  31.445  0.00  0.00    +0.000 OA
ATOM     38  H19 UNL     1      19.607  38.204  31.330  0.00  0.00    +0.000 HD
ENDBRANCH  14  37
BRANCH  15  39
ATOM     39  O5  UNL     1      15.618  36.853  32.138  0.00  0.00    +0.000 OA
ATOM     40  H21 UNL     1      15.664  37.735  32.591  0.00  0.00    +0.000 HD
ENDBRANCH  15  39
TORSDOF 5
ENDMDL
MODEL 7
REMARK VINA RESULT:    -7.153      4.171      9.294
REMARK INTER + INTRA:         -10.286
REMARK INTER:                  -9.181
REMARK INTRA:                  -1.105
REMARK UNBOUND:                -1.460
REMARK  Name = CNP0489376_1.pdb
REMARK  6 active torsions:
REMARK  status: ('A' for Active; 'I' for Inactive)
REMARK    1  A    between atoms: C1_1  and  C2_2
REMARK    2  A    between atoms: C14_16  and  C15_17
REMARK    3  A    between atoms: C15_17  and  N1_18
REMARK    4  A    between atoms: N1_18  and  C16_19
REMARK    5  A    between atoms: C27_32  and  O4_33
REMARK    6  A    between atoms: C28_34  and  O5_35
REMARK                            x       y       z     vdW  Elec       q    Type
REMARK                         _______ _______ _______ _____ _____    ______ ____
ROOT
ATOM      1  C16 UNL     1      24.913  35.429  39.026  0.00  0.00    +0.000 A 
ATOM      2  C17 UNL     1      24.235  34.245  39.413  0.00  0.00    +0.000 A 
ATOM      3  C18 UNL     1      24.734  33.430  40.442  0.00  0.00    +0.000 A 
ATOM      4  C19 UNL     1      25.912  33.807  41.085  0.00  0.00    +0.000 A 
ATOM      5  C20 UNL     1      26.613  33.107  42.151  0.00  0.00    +0.000 C 
ATOM      6  O3  UNL     1      26.210  32.030  42.662  0.00  0.00    +0.000 OA
ATOM      7  S1  UNL     1      28.124  33.935  42.661  0.00  0.00    +0.000 S 
ATOM      8  C21 UNL     1      27.742  35.191  41.419  0.00  0.00    +0.000 A 
ATOM      9  C22 UNL     1      26.574  34.949  40.720  0.00  0.00    +0.000 A 
ATOM     10  C23 UNL     1      26.116  35.783  39.693  0.00  0.00    +0.000 A 
ATOM     11  C24 UNL     1      26.907  36.900  39.355  0.00  0.00    +0.000 A 
ATOM     12  C25 UNL     1      28.102  37.166  40.055  0.00  0.00    +0.000 A 
ATOM     13  C26 UNL     1      28.525  36.315  41.108  0.00  0.00    +0.000 A 
ATOM     14  C27 UNL     1      29.858  36.560  41.782  0.00  0.00    +0.000 C 
ATOM     15  C28 UNL     1      30.216  38.069  41.788  0.00  0.00    +0.000 C 
ATOM     16  C29 UNL     1      29.947  38.723  40.454  0.00  0.00    +0.000 C 
ATOM     17  C30 UNL     1      28.928  38.332  39.683  0.00  0.00    +0.000 C 
ENDROOT
BRANCH   1  18
ATOM     18  N1  UNL     1      24.377  36.258  37.979  0.00  0.00    +0.000 N 
ATOM     19  H14 UNL     1      24.828  37.177  37.776  0.00  0.00    +0.000 HD
BRANCH  18  20
ATOM     20  C15 UNL     1      23.267  35.849  37.116  0.00  0.00    +0.000 C 
BRANCH  20  36
ATOM     21  C1  UNL     1      18.957  37.956  35.378  0.00  0.00    +0.000 C 
ATOM     22  C2  UNL     1      19.757  37.446  36.542  0.00  0.00    +0.000 C 
ATOM     23  C3  UNL     1      19.409  37.803  37.792  0.00  0.00    +0.000 C 
ATOM     24  C4  UNL     1      20.180  37.330  38.961  0.00  0.00    +0.000 C 
ATOM     25  O1  UNL     1      19.837  37.681  40.122  0.00  0.00    +0.000 OA
ATOM     26  C5  UNL     1      21.348  36.395  38.770  0.00  0.00    +0.000 C 
ATOM     27  C6  UNL     1      20.838  34.968  38.829  0.00  0.00    +0.000 A 
ATOM     28  C7  UNL     1      20.815  34.281  40.053  0.00  0.00    +0.000 A 
ATOM     29  C8  UNL     1      20.305  32.983  40.122  0.00  0.00    +0.000 A 
ATOM     30  C9  UNL     1      19.804  32.364  38.974  0.00  0.00    +0.000 A 
ATOM     31  C10 UNL     1      19.812  33.040  37.751  0.00  0.00    +0.000 A 
ATOM     32  C11 UNL     1      20.323  34.346  37.667  0.00  0.00    +0.000 A 
ATOM     33  C12 UNL     1      20.367  35.068  36.369  0.00  0.00    +0.000 C 
ATOM     34  O2  UNL     1      19.922  34.530  35.320  0.00  0.00    +0.000 OA
ATOM     35  C13 UNL     1      20.907  36.479  36.308  0.00  0.00    +0.000 C 
ATOM     36  C14 UNL     1      21.996  36.689  37.392  0.00  0.00    +0.000 C 
ENDBRANCH  20  36
ENDBRANCH  18  20
ENDBRANCH   1  18
BRANCH  14  37
ATOM     37  O4  UNL     1      30.843  35.837  41.092  0.00  0.00    +0.000 OA
ATOM     38  H19 UNL     1      31.400  36.499  40.605  0.00  0.00    +0.000 HD
ENDBRANCH  14  37
BRANCH  15  39
ATOM     39  O5  UNL     1      29.519  38.744  42.807  0.00  0.00    +0.000 OA
ATOM     40  H21 UNL     1      29.680  38.259  43.658  0.00  0.00    +0.000 HD
ENDBRANCH  15  39
TORSDOF 5
ENDMDL
MODEL 8
REMARK VINA RESULT:    -6.933     11.225     15.649
REMARK INTER + INTRA:         -10.015
REMARK INTER:                  -8.038
REMARK INTRA:                  -1.976
REMARK UNBOUND:                -1.460
REMARK  Name = CNP0489376_1.pdb
REMARK  6 active torsions:
REMARK  status: ('A' for Active; 'I' for Inactive)
REMARK    1  A    between atoms: C1_1  and  C2_2
REMARK    2  A    between atoms: C14_16  and  C15_17
REMARK    3  A    between atoms: C15_17  and  N1_18
REMARK    4  A    between atoms: N1_18  and  C16_19
REMARK    5  A    between atoms: C27_32  and  O4_33
REMARK    6  A    between atoms: C28_34  and  O5_35
REMARK                            x       y       z     vdW  Elec       q    Type
REMARK                         _______ _______ _______ _____ _____    ______ ____
ROOT
ATOM      1  C16 UNL     1      26.896  49.009  31.081  0.00  0.00    +0.000 A 
ATOM      2  C17 UNL     1      27.990  48.115  30.951  0.00  0.00    +0.000 A 
ATOM      3  C18 UNL     1      29.157  48.286  31.712  0.00  0.00    +0.000 A 
ATOM      4  C19 UNL     1      29.225  49.352  32.607  0.00  0.00    +0.000 A 
ATOM      5  C20 UNL     1      30.335  49.726  33.470  0.00  0.00    +0.000 C 
ATOM      6  O3  UNL     1      31.418  49.089  33.531  0.00  0.00    +0.000 OA
ATOM      7  S1  UNL     1      30.005  51.203  34.440  0.00  0.00    +0.000 S 
ATOM      8  C21 UNL     1      28.383  51.248  33.644  0.00  0.00    +0.000 A 
ATOM      9  C22 UNL     1      28.174  50.221  32.743  0.00  0.00    +0.000 A 
ATOM     10  C23 UNL     1      26.997  50.092  31.995  0.00  0.00    +0.000 A 
ATOM     11  C24 UNL     1      26.003  51.076  32.166  0.00  0.00    +0.000 A 
ATOM     12  C25 UNL     1      26.195  52.133  33.081  0.00  0.00    +0.000 A 
ATOM     13  C26 UNL     1      27.389  52.220  33.840  0.00  0.00    +0.000 A 
ATOM     14  C27 UNL     1      27.619  53.413  34.744  0.00  0.00    +0.000 C 
ATOM     15  C28 UNL     1      26.280  53.962  35.302  0.00  0.00    +0.000 C 
ATOM     16  C29 UNL     1      25.214  54.054  34.237  0.00  0.00    +0.000 C 
ATOM     17  C30 UNL     1      25.152  53.166  33.240  0.00  0.00    +0.000 C 
ENDROOT
BRANCH   1  18
ATOM     18  N1  UNL     1      25.703  48.808  30.303  0.00  0.00    +0.000 N 
ATOM     19  H14 UNL     1      25.309  49.607  29.758  0.00  0.00    +0.000 HD
BRANCH  18  20
ATOM     20  C15 UNL     1      25.040  47.510  30.165  0.00  0.00    +0.000 C 
BRANCH  20  36
ATOM     21  C1  UNL     1      20.609  45.156  31.096  0.00  0.00    +0.000 C 
ATOM     22  C2  UNL     1      21.655  46.141  31.533  0.00  0.00    +0.000 C 
ATOM     23  C3  UNL     1      21.357  47.044  32.486  0.00  0.00    +0.000 C 
ATOM     24  C4  UNL     1      22.357  48.036  32.933  0.00  0.00    +0.000 C 
ATOM     25  O1  UNL     1      22.054  48.873  33.825  0.00  0.00    +0.000 OA
ATOM     26  C5  UNL     1      23.751  48.019  32.356  0.00  0.00    +0.000 C 
ATOM     27  C6  UNL     1      24.617  47.115  33.211  0.00  0.00    +0.000 A 
ATOM     28  C7  UNL     1      25.343  47.651  34.287  0.00  0.00    +0.000 A 
ATOM     29  C8  UNL     1      26.106  46.817  35.106  0.00  0.00    +0.000 A 
ATOM     30  C9  UNL     1      26.144  45.441  34.865  0.00  0.00    +0.000 A 
ATOM     31  C10 UNL     1      25.418  44.893  33.804  0.00  0.00    +0.000 A 
ATOM     32  C11 UNL     1      24.646  45.721  32.971  0.00  0.00    +0.000 A 
ATOM     33  C12 UNL     1      23.892  45.160  31.821  0.00  0.00    +0.000 C 
ATOM     34  O2  UNL     1      23.912  43.922  31.583  0.00  0.00    +0.000 OA
ATOM     35  C13 UNL     1      23.057  46.070  30.949  0.00  0.00    +0.000 C 
ATOM     36  C14 UNL     1      23.676  47.490  30.900  0.00  0.00    +0.000 C 
ENDBRANCH  20  36
ENDBRANCH  18  20
ENDBRANCH   1  18
BRANCH  14  37
ATOM     37  O4  UNL     1      28.274  54.409  34.003  0.00  0.00    +0.000 OA
ATOM     38  H19 UNL     1      28.387  55.190  34.607  0.00  0.00    +0.000 HD
ENDBRANCH  14  37
BRANCH  15  39
ATOM     39  O5  UNL     1      25.825  53.173  36.375  0.00  0.00    +0.000 OA
ATOM     40  H21 UNL     1      25.086  52.601  36.039  0.00  0.00    +0.000 HD
ENDBRANCH  15  39
TORSDOF 5
ENDMDL
MODEL 9
REMARK VINA RESULT:    -6.917      2.761      8.213
REMARK INTER + INTRA:          -9.995
REMARK INTER:                  -9.049
REMARK INTRA:                  -0.946
REMARK UNBOUND:                -1.460
REMARK  Name = CNP0489376_1.pdb
REMARK  6 active torsions:
REMARK  status: ('A' for Active; 'I' for Inactive)
REMARK    1  A    between atoms: C1_1  and  C2_2
REMARK    2  A    between atoms: C14_16  and  C15_17
REMARK    3  A    between atoms: C15_17  and  N1_18
REMARK    4  A    between atoms: N1_18  and  C16_19
REMARK    5  A    between atoms: C27_32  and  O4_33
REMARK    6  A    between atoms: C28_34  and  O5_35
REMARK                            x       y       z     vdW  Elec       q    Type
REMARK                         _______ _______ _______ _____ _____    ______ ____
ROOT
ATOM      1  C16 UNL     1      21.717  35.292  36.670  0.00  0.00    +0.000 A 
ATOM      2  C17 UNL     1      20.576  34.488  36.419  0.00  0.00    +0.000 A 
ATOM      3  C18 UNL     1      20.264  33.397  37.246  0.00  0.00    +0.000 A 
ATOM      4  C19 UNL     1      21.096  33.116  38.327  0.00  0.00    +0.000 A 
ATOM      5  C20 UNL     1      20.977  32.031  39.290  0.00  0.00    +0.000 C 
ATOM      6  O3  UNL     1      20.047  31.183  39.274  0.00  0.00    +0.000 OA
ATOM      7  S1  UNL     1      22.300  32.021  40.506  0.00  0.00    +0.000 S 
ATOM      8  C21 UNL     1      22.954  33.482  39.667  0.00  0.00    +0.000 A 
ATOM      9  C22 UNL     1      22.201  33.886  38.581  0.00  0.00    +0.000 A 
ATOM     10  C23 UNL     1      22.552  34.976  37.774  0.00  0.00    +0.000 A 
ATOM     11  C24 UNL     1      23.743  35.663  38.086  0.00  0.00    +0.000 A 
ATOM     12  C25 UNL     1      24.527  35.267  39.191  0.00  0.00    +0.000 A 
ATOM     13  C26 UNL     1      24.129  34.175  40.001  0.00  0.00    +0.000 A 
ATOM     14  C27 UNL     1      25.031  33.703  41.122  0.00  0.00    +0.000 C 
ATOM     15  C28 UNL     1      25.848  34.879  41.718  0.00  0.00    +0.000 C 
ATOM     16  C29 UNL     1      26.428  35.770  40.646  0.00  0.00    +0.000 C 
ATOM     17  C30 UNL     1      25.778  35.987  39.499  0.00  0.00    +0.000 C 
ENDROOT
BRANCH   1  18
ATOM     18  N1  UNL     1      22.010  36.415  35.820  0.00  0.00    +0.000 N 
ATOM     19  H14 UNL     1      22.725  37.112  36.125  0.00  0.00    +0.000 HD
BRANCH  18  20
ATOM     20  C15 UNL     1      21.414  36.600  34.495  0.00  0.00    +0.000 C 
BRANCH  20  36
ATOM     21  C1  UNL     1      17.507  39.466  32.893  0.00  0.00    +0.000 C 
ATOM     22  C2  UNL     1      18.686  39.301  33.809  0.00  0.00    +0.000 C 
ATOM     23  C3  UNL     1      19.209  40.381  34.418  0.00  0.00    +0.000 C 
ATOM     24  C4  UNL     1      20.376  40.259  35.316  0.00  0.00    +0.000 C 
ATOM     25  O1  UNL     1      20.849  41.285  35.872  0.00  0.00    +0.000 OA
ATOM     26  C5  UNL     1      20.972  38.903  35.601  0.00  0.00    +0.000 C 
ATOM     27  C6  UNL     1      20.278  38.316  36.814  0.00  0.00    +0.000 A 
ATOM     28  C7  UNL     1      20.802  38.535  38.098  0.00  0.00    +0.000 A 
ATOM     29  C8  UNL     1      20.142  38.036  39.223  0.00  0.00    +0.000 A 
ATOM     30  C9  UNL     1      18.950  37.322  39.078  0.00  0.00    +0.000 A 
ATOM     31  C10 UNL     1      18.411  37.105  37.806  0.00  0.00    +0.000 A 
ATOM     32  C11 UNL     1      19.065  37.601  36.666  0.00  0.00    +0.000 A 
ATOM     33  C12 UNL     1      18.523  37.354  35.305  0.00  0.00    +0.000 C 
ATOM     34  O2  UNL     1      17.449  36.713  35.149  0.00  0.00    +0.000 OA
ATOM     35  C13 UNL     1      19.237  37.912  34.095  0.00  0.00    +0.000 C 
ATOM     36  C14 UNL     1      20.762  37.999  34.359  0.00  0.00    +0.000 C 
ENDBRANCH  20  36
ENDBRANCH  18  20
ENDBRANCH   1  18
BRANCH  14  37
ATOM     37  O4  UNL     1      25.900  32.727  40.609  0.00  0.00    +0.000 OA
ATOM     38  H19 UNL     1      25.412  31.863  40.639  0.00  0.00    +0.000 HD
ENDBRANCH  14  37
BRANCH  15  39
ATOM     39  O5  UNL     1      25.061  35.637  42.604  0.00  0.00    +0.000 OA
ATOM     40  H21 UNL     1      25.433  35.521  43.517  0.00  0.00    +0.000 HD
ENDBRANCH  15  39
TORSDOF 5
ENDMDL
MODEL 10
REMARK VINA RESULT:    -6.897      4.757      9.974
REMARK INTER + INTRA:          -9.970
REMARK INTER:                  -9.386
REMARK INTRA:                  -0.584
REMARK UNBOUND:                -1.460
REMARK  Name = CNP0489376_1.pdb
REMARK  6 active torsions:
REMARK  status: ('A' for Active; 'I' for Inactive)
REMARK    1  A    between atoms: C1_1  and  C2_2
REMARK    2  A    between atoms: C14_16  and  C15_17
REMARK    3  A    between atoms: C15_17  and  N1_18
REMARK    4  A    between atoms: N1_18  and  C16_19
REMARK    5  A    between atoms: C27_32  and  O4_33
REMARK    6  A    between atoms: C28_34  and  O5_35
REMARK                            x       y       z     vdW  Elec       q    Type
REMARK                         _______ _______ _______ _____ _____    ______ ____
ROOT
ATOM      1  C16 UNL     1      26.019  35.063  39.756  0.00  0.00    +0.000 A 
ATOM      2  C17 UNL     1      25.729  33.799  40.331  0.00  0.00    +0.000 A 
ATOM      3  C18 UNL     1      26.545  33.259  41.338  0.00  0.00    +0.000 A 
ATOM      4  C19 UNL     1      27.649  33.990  41.771  0.00  0.00    +0.000 A 
ATOM      5  C20 UNL     1      28.632  33.615  42.776  0.00  0.00    +0.000 C 
ATOM      6  O3  UNL     1      28.592  32.537  43.424  0.00  0.00    +0.000 OA
ATOM      7  S1  UNL     1      29.921  34.848  42.994  0.00  0.00    +0.000 S 
ATOM      8  C21 UNL     1      29.076  35.818  41.725  0.00  0.00    +0.000 A 
ATOM      9  C22 UNL     1      27.938  35.213  41.225  0.00  0.00    +0.000 A 
ATOM     10  C23 UNL     1      27.156  35.782  40.211  0.00  0.00    +0.000 A 
ATOM     11  C24 UNL     1      27.578  37.015  39.675  0.00  0.00    +0.000 A 
ATOM     12  C25 UNL     1      28.736  37.651  40.171  0.00  0.00    +0.000 A 
ATOM     13  C26 UNL     1      29.490  37.059  41.215  0.00  0.00    +0.000 A 
ATOM     14  C27 UNL     1      30.782  37.706  41.667  0.00  0.00    +0.000 C 
ATOM     15  C28 UNL     1      30.728  39.247  41.502  0.00  0.00    +0.000 C 
ATOM     16  C29 UNL     1      30.138  39.656  40.173  0.00  0.00    +0.000 C 
ATOM     17  C30 UNL     1      29.174  38.936  39.592  0.00  0.00    +0.000 C 
ENDROOT
BRANCH   1  18
ATOM     18  N1  UNL     1      25.162  35.606  38.736  0.00  0.00    +0.000 N 
ATOM     19  H14 UNL     1      25.540  35.742  37.772  0.00  0.00    +0.000 HD
BRANCH  18  20
ATOM     20  C15 UNL     1      23.747  35.914  38.953  0.00  0.00    +0.000 C 
BRANCH  20  36
ATOM     21  C1  UNL     1      20.295  33.404  36.156  0.00  0.00    +0.000 C 
ATOM     22  C2  UNL     1      21.026  34.683  36.445  0.00  0.00    +0.000 C 
ATOM     23  C3  UNL     1      21.039  35.662  35.522  0.00  0.00    +0.000 C 
ATOM     24  C4  UNL     1      21.759  36.929  35.767  0.00  0.00    +0.000 C 
ATOM     25  O1  UNL     1      21.759  37.830  34.886  0.00  0.00    +0.000 OA
ATOM     26  C5  UNL     1      22.454  37.163  37.085  0.00  0.00    +0.000 C 
ATOM     27  C6  UNL     1      21.472  37.812  38.040  0.00  0.00    +0.000 A 
ATOM     28  C7  UNL     1      21.394  39.212  38.123  0.00  0.00    +0.000 A 
ATOM     29  C8  UNL     1      20.461  39.816  38.967  0.00  0.00    +0.000 A 
ATOM     30  C9  UNL     1      19.591  39.031  39.728  0.00  0.00    +0.000 A 
ATOM     31  C10 UNL     1      19.651  37.637  39.648  0.00  0.00    +0.000 A 
ATOM     32  C11 UNL     1      20.585  37.015  38.803  0.00  0.00    +0.000 A 
ATOM     33  C12 UNL     1      20.683  35.535  38.728  0.00  0.00    +0.000 C 
ATOM     34  O2  UNL     1      19.910  34.806  39.405  0.00  0.00    +0.000 OA
ATOM     35  C13 UNL     1      21.687  34.891  37.799  0.00  0.00    +0.000 C 
ATOM     36  C14 UNL     1      22.935  35.797  37.639  0.00  0.00    +0.000 C 
ENDBRANCH  20  36
ENDBRANCH  18  20
ENDBRANCH   1  18
BRANCH  14  37
ATOM     37  O4  UNL     1      31.834  37.179  40.901  0.00  0.00    +0.000 OA
ATOM     38  H19 UNL     1      32.633  37.739  41.083  0.00  0.00    +0.000 HD
ENDBRANCH  14  37
BRANCH  15  39
ATOM     39  O5  UNL     1      30.005  39.838  42.554  0.00  0.00    +0.000 OA
ATOM     40  H21 UNL     1      30.286  39.399  43.400  0.00  0.00    +0.000 HD
ENDBRANCH  15  39
TORSDOF 5
ENDMDL
