MODEL 1
REMARK VINA RESULT:    -7.564      0.000      0.000
REMARK INTER + INTRA:         -10.205
REMARK INTER:                  -9.554
REMARK INTRA:                  -0.651
REMARK UNBOUND:                -0.651
REMARK  Name = CNP0148074_1.pdb
REMARK  11 active torsions:
REMARK  status: ('A' for Active; 'I' for Inactive)
REMARK    1  A    between atoms: C1_1  and  C2_2
REMARK    2  A    between atoms: C4_4  and  C5_5
REMARK    3  A    between atoms: C5_5  and  O1_6
REMARK    4  A    between atoms: C5_5  and  C6_7
REMARK    5  A    between atoms: C6_7  and  C7_8
REMARK    6  A    between atoms: C6_7  and  C8_9
REMARK    7  A    between atoms: C11_12  and  O2_13
REMARK    8  A    between atoms: C16_18  and  C17_19
REMARK    9  A    between atoms: C16_18  and  C18_20
REMARK   10  A    between atoms: C24_29  and  O6_30
REMARK   11  A    between atoms: C27_33  and  C28_34
REMARK                            x       y       z     vdW  Elec       q    Type
REMARK                         _______ _______ _______ _____ _____    ______ ____
ROOT
ATOM      1  C8  UNL     1      21.884  33.955  38.737  0.00  0.00    +0.000 C 
ATOM      2  C9  UNL     1      20.818  33.008  38.109  0.00  0.00    +0.000 C 
ATOM      3  C10 UNL     1      19.950  33.846  37.159  0.00  0.00    +0.000 C 
ATOM      4  C11 UNL     1      20.694  35.180  37.045  0.00  0.00    +0.000 C 
ATOM      5  C12 UNL     1      19.861  36.425  36.581  0.00  0.00    +0.000 C 
ATOM      6  C13 UNL     1      19.185  36.174  35.212  0.00  0.00    +0.000 C 
ATOM      7  C14 UNL     1      18.144  37.240  34.825  0.00  0.00    +0.000 C 
ATOM      8  C15 UNL     1      18.764  38.443  34.062  0.00  0.00    +0.000 C 
ATOM      9  C16 UNL     1      17.739  39.375  33.330  0.00  0.00    +0.000 C 
ATOM     10  C17 UNL     1      18.261  39.735  31.923  0.00  0.00    +0.000 C 
ATOM     11  C18 UNL     1      16.323  38.785  33.161  0.00  0.00    +0.000 C 
ATOM     12  O3  UNL     1      17.603  40.574  34.061  0.00  0.00    +0.000 OA
ATOM     13  C19 UNL     1      18.675  40.694  34.968  0.00  0.00    +0.000 C 
ATOM     14  C20 UNL     1      19.579  41.869  34.558  0.00  0.00    +0.000 C 
ATOM     15  C21 UNL     1      20.793  41.184  34.087  0.00  0.00    +0.000 C 
ATOM     16  O4  UNL     1      21.780  41.768  33.568  0.00  0.00    +0.000 OA
ATOM     17  O5  UNL     1      20.743  39.822  34.273  0.00  0.00    +0.000 OA
ATOM     18  C22 UNL     1      19.552  39.420  34.940  0.00  0.00    +0.000 C 
ATOM     19  C23 UNL     1      19.903  38.991  36.395  0.00  0.00    +0.000 C 
ATOM     20  C24 UNL     1      20.775  37.706  36.571  0.00  0.00    +0.000 C 
ATOM     21  C25 UNL     1      21.547  37.844  37.931  0.00  0.00    +0.000 C 
ATOM     22  C26 UNL     1      22.251  36.560  38.419  0.00  0.00    +0.000 C 
ATOM     23  C27 UNL     1      21.262  35.369  38.486  0.00  0.00    +0.000 C 
ATOM     24  C28 UNL     1      20.161  35.647  39.569  0.00  0.00    +0.000 C 
ENDROOT
BRANCH   1  25
ATOM     25  C6  UNL     1      22.313  33.510  40.194  0.00  0.00    +0.000 C 
ATOM     26  C7  UNL     1      22.905  32.083  40.125  0.00  0.00    +0.000 C 
BRANCH  25  27
ATOM     27  C5  UNL     1      23.292  34.546  40.871  0.00  0.00    +0.000 C 
BRANCH  27  31
ATOM     28  C1  UNL     1      27.752  36.709  41.338  0.00  0.00    +0.000 C 
ATOM     29  C2  UNL     1      26.622  35.888  40.805  0.00  0.00    +0.000 C 
ATOM     30  C3  UNL     1      25.715  35.246  41.531  0.00  0.00    +0.000 C 
ATOM     31  C4  UNL     1      24.826  34.426  40.630  0.00  0.00    +0.000 C 
ATOM     32  O7  UNL     1      25.226  34.793  39.313  0.00  0.00    +0.000 OA
ATOM     33  C29 UNL     1      26.349  35.595  39.414  0.00  0.00    +0.000 C 
ATOM     34  O8  UNL     1      26.997  36.029  38.425  0.00  0.00    +0.000 OA
ENDBRANCH  27  31
BRANCH  27  35
ATOM     35  O1  UNL     1      23.104  34.481  42.261  0.00  0.00    +0.000 OA
ATOM     36  H7  UNL     1      22.590  33.655  42.459  0.00  0.00    +0.000 HD
ENDBRANCH  27  35
ENDBRANCH  25  27
ENDBRANCH   1  25
BRANCH   4  37
ATOM     37  O2  UNL     1      21.780  34.999  36.148  0.00  0.00    +0.000 OA
ATOM     38  H17 UNL     1      22.613  34.855  36.667  0.00  0.00    +0.000 HD
ENDBRANCH   4  37
BRANCH  20  39
ATOM     39  O6  UNL     1      21.710  37.597  35.521  0.00  0.00    +0.000 OA
ATOM     40  H35 UNL     1      22.085  38.499  35.341  0.00  0.00    +0.000 HD
ENDBRANCH  20  39
TORSDOF 6
ENDMDL
MODEL 2
REMARK VINA RESULT:    -7.509     15.804     19.524
REMARK INTER + INTRA:         -10.136
REMARK INTER:                  -9.272
REMARK INTRA:                  -0.864
REMARK UNBOUND:                -0.651
REMARK  Name = CNP0148074_1.pdb
REMARK  11 active torsions:
REMARK  status: ('A' for Active; 'I' for Inactive)
REMARK    1  A    between atoms: C1_1  and  C2_2
REMARK    2  A    between atoms: C4_4  and  C5_5
REMARK    3  A    between atoms: C5_5  and  O1_6
REMARK    4  A    between atoms: C5_5  and  C6_7
REMARK    5  A    between atoms: C6_7  and  C7_8
REMARK    6  A    between atoms: C6_7  and  C8_9
REMARK    7  A    between atoms: C11_12  and  O2_13
REMARK    8  A    between atoms: C16_18  and  C17_19
REMARK    9  A    between atoms: C16_18  and  C18_20
REMARK   10  A    between atoms: C24_29  and  O6_30
REMARK   11  A    between atoms: C27_33  and  C28_34
REMARK                            x       y       z     vdW  Elec       q    Type
REMARK                         _______ _______ _______ _____ _____    ______ ____
ROOT
ATOM      1  C8  UNL     1       9.491  49.874  44.399  0.00  0.00    +0.000 C 
ATOM      2  C9  UNL     1       8.788  51.117  45.022  0.00  0.00    +0.000 C 
ATOM      3  C10 UNL     1       9.864  51.966  45.716  0.00  0.00    +0.000 C 
ATOM      4  C11 UNL     1      11.188  51.351  45.249  0.00  0.00    +0.000 C 
ATOM      5  C12 UNL     1      12.453  51.624  46.136  0.00  0.00    +0.000 C 
ATOM      6  C13 UNL     1      12.703  53.141  46.310  0.00  0.00    +0.000 C 
ATOM      7  C14 UNL     1      13.759  53.481  47.378  0.00  0.00    +0.000 C 
ATOM      8  C15 UNL     1      15.204  53.521  46.808  0.00  0.00    +0.000 C 
ATOM      9  C16 UNL     1      16.271  54.201  47.732  0.00  0.00    +0.000 C 
ATOM     10  C17 UNL     1      17.184  55.124  46.897  0.00  0.00    +0.000 C 
ATOM     11  C18 UNL     1      15.693  55.045  48.888  0.00  0.00    +0.000 C 
ATOM     12  O3  UNL     1      17.081  53.203  48.313  0.00  0.00    +0.000 OA
ATOM     13  C19 UNL     1      16.917  51.996  47.605  0.00  0.00    +0.000 C 
ATOM     14  C20 UNL     1      18.220  51.637  46.871  0.00  0.00    +0.000 C 
ATOM     15  C21 UNL     1      17.859  51.856  45.462  0.00  0.00    +0.000 C 
ATOM     16  O4  UNL     1      18.667  51.766  44.501  0.00  0.00    +0.000 OA
ATOM     17  O5  UNL     1      16.531  52.175  45.295  0.00  0.00    +0.000 OA
ATOM     18  C22 UNL     1      15.819  52.146  46.527  0.00  0.00    +0.000 C 
ATOM     19  C23 UNL     1      14.887  50.899  46.547  0.00  0.00    +0.000 C 
ATOM     20  C24 UNL     1      13.699  50.877  45.532  0.00  0.00    +0.000 C 
ATOM     21  C25 UNL     1      13.356  49.373  45.242  0.00  0.00    +0.000 C 
ATOM     22  C26 UNL     1      12.036  49.137  44.477  0.00  0.00    +0.000 C 
ATOM     23  C27 UNL     1      10.845  49.829  45.185  0.00  0.00    +0.000 C 
ATOM     24  C28 UNL     1      10.603  49.175  46.591  0.00  0.00    +0.000 C 
ENDROOT
BRANCH   1  25
ATOM     25  C6  UNL     1       8.550  48.603  44.345  0.00  0.00    +0.000 C 
ATOM     26  C7  UNL     1       7.175  48.976  44.947  0.00  0.00    +0.000 C 
BRANCH  25  27
ATOM     27  C5  UNL     1       8.438  48.004  42.889  0.00  0.00    +0.000 C 
BRANCH  27  31
ATOM     28  C1  UNL     1      10.490  47.301  38.409  0.00  0.00    +0.000 C 
ATOM     29  C2  UNL     1      10.198  47.182  39.870  0.00  0.00    +0.000 C 
ATOM     30  C3  UNL     1       9.787  48.163  40.664  0.00  0.00    +0.000 C 
ATOM     31  C4  UNL     1       9.735  47.676  42.091  0.00  0.00    +0.000 C 
ATOM     32  O7  UNL     1      10.007  46.281  41.996  0.00  0.00    +0.000 OA
ATOM     33  C29 UNL     1      10.368  46.002  40.691  0.00  0.00    +0.000 C 
ATOM     34  O8  UNL     1      10.744  44.869  40.289  0.00  0.00    +0.000 OA
ENDBRANCH  27  31
BRANCH  27  35
ATOM     35  O1  UNL     1       7.706  48.906  42.101  0.00  0.00    +0.000 OA
ATOM     36  H7  UNL     1       7.245  48.385  41.392  0.00  0.00    +0.000 HD
ENDBRANCH  27  35
ENDBRANCH  25  27
ENDBRANCH   1  25
BRANCH   4  37
ATOM     37  O2  UNL     1      11.445  51.814  43.932  0.00  0.00    +0.000 OA
ATOM     38  H17 UNL     1      10.721  52.431  43.654  0.00  0.00    +0.000 HD
ENDBRANCH   4  37
BRANCH  20  39
ATOM     39  O6  UNL     1      14.071  51.504  44.324  0.00  0.00    +0.000 OA
ATOM     40  H35 UNL     1      15.045  51.695  44.359  0.00  0.00    +0.000 HD
ENDBRANCH  20  39
TORSDOF 6
ENDMDL
MODEL 3
REMARK VINA RESULT:    -7.235      1.890      9.418
REMARK INTER + INTRA:          -9.790
REMARK INTER:                  -9.022
REMARK INTRA:                  -0.768
REMARK UNBOUND:                -0.651
REMARK  Name = CNP0148074_1.pdb
REMARK  11 active torsions:
REMARK  status: ('A' for Active; 'I' for Inactive)
REMARK    1  A    between atoms: C1_1  and  C2_2
REMARK    2  A    between atoms: C4_4  and  C5_5
REMARK    3  A    between atoms: C5_5  and  O1_6
REMARK    4  A    between atoms: C5_5  and  C6_7
REMARK    5  A    between atoms: C6_7  and  C7_8
REMARK    6  A    between atoms: C6_7  and  C8_9
REMARK    7  A    between atoms: C11_12  and  O2_13
REMARK    8  A    between atoms: C16_18  and  C17_19
REMARK    9  A    between atoms: C16_18  and  C18_20
REMARK   10  A    between atoms: C24_29  and  O6_30
REMARK   11  A    between atoms: C27_33  and  C28_34
REMARK                            x       y       z     vdW  Elec       q    Type
REMARK                         _______ _______ _______ _____ _____    ______ ____
ROOT
ATOM      1  C8  UNL     1      19.634  39.823  34.535  0.00  0.00    +0.000 C 
ATOM      2  C9  UNL     1      21.109  40.214  34.219  0.00  0.00    +0.000 C 
ATOM      3  C10 UNL     1      22.022  39.351  35.101  0.00  0.00    +0.000 C 
ATOM      4  C11 UNL     1      21.083  38.297  35.698  0.00  0.00    +0.000 C 
ATOM      5  C12 UNL     1      21.556  37.583  37.013  0.00  0.00    +0.000 C 
ATOM      6  C13 UNL     1      22.930  36.898  36.820  0.00  0.00    +0.000 C 
ATOM      7  C14 UNL     1      23.573  36.411  38.132  0.00  0.00    +0.000 C 
ATOM      8  C15 UNL     1      23.143  34.969  38.518  0.00  0.00    +0.000 C 
ATOM      9  C16 UNL     1      24.017  34.281  39.621  0.00  0.00    +0.000 C 
ATOM     10  C17 UNL     1      24.312  32.817  39.227  0.00  0.00    +0.000 C 
ATOM     11  C18 UNL     1      25.371  34.965  39.905  0.00  0.00    +0.000 C 
ATOM     12  O3  UNL     1      23.299  34.265  40.835  0.00  0.00    +0.000 OA
ATOM     13  C19 UNL     1      21.937  34.520  40.577  0.00  0.00    +0.000 C 
ATOM     14  C20 UNL     1      21.102  33.265  40.880  0.00  0.00    +0.000 C 
ATOM     15  C21 UNL     1      20.692  32.826  39.536  0.00  0.00    +0.000 C 
ATOM     16  O4  UNL     1      20.056  31.766  39.299  0.00  0.00    +0.000 OA
ATOM     17  O5  UNL     1      21.080  33.702  38.549  0.00  0.00    +0.000 OA
ATOM     18  C22 UNL     1      21.723  34.854  39.082  0.00  0.00    +0.000 C 
ATOM     19  C23 UNL     1      20.771  36.078  38.946  0.00  0.00    +0.000 C 
ATOM     20  C24 UNL     1      20.448  36.578  37.501  0.00  0.00    +0.000 C 
ATOM     21  C25 UNL     1      19.045  37.280  37.548  0.00  0.00    +0.000 C 
ATOM     22  C26 UNL     1      18.670  38.080  36.282  0.00  0.00    +0.000 C 
ATOM     23  C27 UNL     1      19.770  39.109  35.922  0.00  0.00    +0.000 C 
ATOM     24  C28 UNL     1      19.880  40.194  37.051  0.00  0.00    +0.000 C 
ENDROOT
BRANCH   1  25
ATOM     25  C6  UNL     1      18.627  41.029  34.345  0.00  0.00    +0.000 C 
ATOM     26  C7  UNL     1      19.432  42.350  34.322  0.00  0.00    +0.000 C 
BRANCH  25  27
ATOM     27  C5  UNL     1      17.712  40.848  33.072  0.00  0.00    +0.000 C 
BRANCH  27  31
ATOM     28  C1  UNL     1      16.050  36.224  32.276  0.00  0.00    +0.000 C 
ATOM     29  C2  UNL     1      16.103  37.714  32.382  0.00  0.00    +0.000 C 
ATOM     30  C3  UNL     1      16.816  38.408  33.261  0.00  0.00    +0.000 C 
ATOM     31  C4  UNL     1      16.496  39.877  33.131  0.00  0.00    +0.000 C 
ATOM     32  O7  UNL     1      15.651  39.953  31.987  0.00  0.00    +0.000 OA
ATOM     33  C29 UNL     1      15.346  38.663  31.592  0.00  0.00    +0.000 C 
ATOM     34  O8  UNL     1      14.555  38.380  30.654  0.00  0.00    +0.000 OA
ENDBRANCH  27  31
BRANCH  27  35
ATOM     35  O1  UNL     1      18.520  40.407  32.012  0.00  0.00    +0.000 OA
ATOM     36  H7  UNL     1      19.390  40.116  32.394  0.00  0.00    +0.000 HD
ENDBRANCH  27  35
ENDBRANCH  25  27
ENDBRANCH   1  25
BRANCH   4  37
ATOM     37  O2  UNL     1      20.845  37.311  34.705  0.00  0.00    +0.000 OA
ATOM     38  H17 UNL     1      21.697  36.855  34.484  0.00  0.00    +0.000 HD
ENDBRANCH   4  37
BRANCH  20  39
ATOM     39  O6  UNL     1      20.387  35.489  36.606  0.00  0.00    +0.000 OA
ATOM     40  H35 UNL     1      21.184  34.915  36.756  0.00  0.00    +0.000 HD
ENDBRANCH  20  39
TORSDOF 6
ENDMDL
MODEL 4
REMARK VINA RESULT:    -7.231      1.636      2.732
REMARK INTER + INTRA:          -9.785
REMARK INTER:                  -9.325
REMARK INTRA:                  -0.460
REMARK UNBOUND:                -0.651
REMARK  Name = CNP0148074_1.pdb
REMARK  11 active torsions:
REMARK  status: ('A' for Active; 'I' for Inactive)
REMARK    1  A    between atoms: C1_1  and  C2_2
REMARK    2  A    between atoms: C4_4  and  C5_5
REMARK    3  A    between atoms: C5_5  and  O1_6
REMARK    4  A    between atoms: C5_5  and  C6_7
REMARK    5  A    between atoms: C6_7  and  C7_8
REMARK    6  A    between atoms: C6_7  and  C8_9
REMARK    7  A    between atoms: C11_12  and  O2_13
REMARK    8  A    between atoms: C16_18  and  C17_19
REMARK    9  A    between atoms: C16_18  and  C18_20
REMARK   10  A    between atoms: C24_29  and  O6_30
REMARK   11  A    between atoms: C27_33  and  C28_34
REMARK                            x       y       z     vdW  Elec       q    Type
REMARK                         _______ _______ _______ _____ _____    ______ ____
ROOT
ATOM      1  C8  UNL     1      21.105  36.024  37.695  0.00  0.00    +0.000 C 
ATOM      2  C9  UNL     1      20.245  35.012  36.881  0.00  0.00    +0.000 C 
ATOM      3  C10 UNL     1      19.385  35.815  35.894  0.00  0.00    +0.000 C 
ATOM      4  C11 UNL     1      19.960  37.234  35.961  0.00  0.00    +0.000 C 
ATOM      5  C12 UNL     1      19.030  38.404  35.487  0.00  0.00    +0.000 C 
ATOM      6  C13 UNL     1      18.546  38.187  34.033  0.00  0.00    +0.000 C 
ATOM      7  C14 UNL     1      17.425  39.150  33.599  0.00  0.00    +0.000 C 
ATOM      8  C15 UNL     1      17.966  40.477  32.999  0.00  0.00    +0.000 C 
ATOM      9  C16 UNL     1      16.916  41.337  32.216  0.00  0.00    +0.000 C 
ATOM     10  C17 UNL     1      17.539  41.872  30.908  0.00  0.00    +0.000 C 
ATOM     11  C18 UNL     1      15.615  40.597  31.839  0.00  0.00    +0.000 C 
ATOM     12  O3  UNL     1      16.548  42.446  33.005  0.00  0.00    +0.000 OA
ATOM     13  C19 UNL     1      17.489  42.618  34.039  0.00  0.00    +0.000 C 
ATOM     14  C20 UNL     1      18.274  43.923  33.822  0.00  0.00    +0.000 C 
ATOM     15  C21 UNL     1      19.610  43.431  33.453  0.00  0.00    +0.000 C 
ATOM     16  O4  UNL     1      20.565  44.169  33.096  0.00  0.00    +0.000 OA
ATOM     17  O5  UNL     1      19.715  42.062  33.538  0.00  0.00    +0.000 OA
ATOM     18  C22 UNL     1      18.520  41.466  34.030  0.00  0.00    +0.000 C 
ATOM     19  C23 UNL     1      18.762  40.963  35.483  0.00  0.00    +0.000 C 
ATOM     20  C24 UNL     1      19.767  39.781  35.674  0.00  0.00    +0.000 C 
ATOM     21  C25 UNL     1      20.361  39.899  37.122  0.00  0.00    +0.000 C 
ATOM     22  C26 UNL     1      21.166  38.672  37.602  0.00  0.00    +0.000 C 
ATOM     23  C27 UNL     1      20.337  37.370  37.469  0.00  0.00    +0.000 C 
ATOM     24  C28 UNL     1      19.098  37.423  38.429  0.00  0.00    +0.000 C 
ENDROOT
BRANCH   1  25
ATOM     25  C6  UNL     1      21.425  35.515  39.159  0.00  0.00    +0.000 C 
ATOM     26  C7  UNL     1      20.313  34.534  39.599  0.00  0.00    +0.000 C 
BRANCH  25  27
ATOM     27  C5  UNL     1      22.870  34.893  39.273  0.00  0.00    +0.000 C 
BRANCH  27  31
ATOM     28  C1  UNL     1      26.914  33.785  41.957  0.00  0.00    +0.000 C 
ATOM     29  C2  UNL     1      25.506  33.807  41.456  0.00  0.00    +0.000 C 
ATOM     30  C3  UNL     1      24.882  34.854  40.930  0.00  0.00    +0.000 C 
ATOM     31  C4  UNL     1      23.436  34.511  40.673  0.00  0.00    +0.000 C 
ATOM     32  O7  UNL     1      23.349  33.120  40.962  0.00  0.00    +0.000 OA
ATOM     33  C29 UNL     1      24.554  32.718  41.509  0.00  0.00    +0.000 C 
ATOM     34  O8  UNL     1      24.780  31.558  41.945  0.00  0.00    +0.000 OA
ENDBRANCH  27  31
BRANCH  27  35
ATOM     35  O1  UNL     1      23.782  35.802  38.712  0.00  0.00    +0.000 OA
ATOM     36  H7  UNL     1      23.278  36.617  38.452  0.00  0.00    +0.000 HD
ENDBRANCH  27  35
ENDBRANCH  25  27
ENDBRANCH   1  25
BRANCH   4  37
ATOM     37  O2  UNL     1      21.153  37.259  35.190  0.00  0.00    +0.000 OA
ATOM     38  H17 UNL     1      21.807  36.623  35.578  0.00  0.00    +0.000 HD
ENDBRANCH   4  37
BRANCH  20  39
ATOM     39  O6  UNL     1      20.818  39.872  34.737  0.00  0.00    +0.000 OA
ATOM     40  H35 UNL     1      20.699  39.153  34.063  0.00  0.00    +0.000 HD
ENDBRANCH  20  39
TORSDOF 6
ENDMDL
MODEL 5
REMARK VINA RESULT:    -7.003      3.052      8.324
REMARK INTER + INTRA:          -9.497
REMARK INTER:                  -8.012
REMARK INTRA:                  -1.485
REMARK UNBOUND:                -0.651
REMARK  Name = CNP0148074_1.pdb
REMARK  11 active torsions:
REMARK  status: ('A' for Active; 'I' for Inactive)
REMARK    1  A    between atoms: C1_1  and  C2_2
REMARK    2  A    between atoms: C4_4  and  C5_5
REMARK    3  A    between atoms: C5_5  and  O1_6
REMARK    4  A    between atoms: C5_5  and  C6_7
REMARK    5  A    between atoms: C6_7  and  C7_8
REMARK    6  A    between atoms: C6_7  and  C8_9
REMARK    7  A    between atoms: C11_12  and  O2_13
REMARK    8  A    between atoms: C16_18  and  C17_19
REMARK    9  A    between atoms: C16_18  and  C18_20
REMARK   10  A    between atoms: C24_29  and  O6_30
REMARK   11  A    between atoms: C27_33  and  C28_34
REMARK                            x       y       z     vdW  Elec       q    Type
REMARK                         _______ _______ _______ _____ _____    ______ ____
ROOT
ATOM      1  C8  UNL     1      20.426  38.488  38.038  0.00  0.00    +0.000 C 
ATOM      2  C9  UNL     1      20.098  38.226  39.538  0.00  0.00    +0.000 C 
ATOM      3  C10 UNL     1      19.961  36.709  39.730  0.00  0.00    +0.000 C 
ATOM      4  C11 UNL     1      20.479  36.114  38.416  0.00  0.00    +0.000 C 
ATOM      5  C12 UNL     1      20.021  34.656  38.062  0.00  0.00    +0.000 C 
ATOM      6  C13 UNL     1      20.399  33.659  39.183  0.00  0.00    +0.000 C 
ATOM      7  C14 UNL     1      19.750  32.271  39.028  0.00  0.00    +0.000 C 
ATOM      8  C15 UNL     1      20.600  31.298  38.164  0.00  0.00    +0.000 C 
ATOM      9  C16 UNL     1      20.194  29.788  38.258  0.00  0.00    +0.000 C 
ATOM     10  C17 UNL     1      21.457  28.907  38.371  0.00  0.00    +0.000 C 
ATOM     11  C18 UNL     1      19.274  29.431  39.444  0.00  0.00    +0.000 C 
ATOM     12  O3  UNL     1      19.513  29.419  37.080  0.00  0.00    +0.000 OA
ATOM     13  C19 UNL     1      19.745  30.387  36.082  0.00  0.00    +0.000 C 
ATOM     14  C20 UNL     1      20.588  29.779  34.948  0.00  0.00    +0.000 C 
ATOM     15  C21 UNL     1      21.881  30.462  35.115  0.00  0.00    +0.000 C 
ATOM     16  O4  UNL     1      22.912  30.201  34.443  0.00  0.00    +0.000 OA
ATOM     17  O5  UNL     1      21.850  31.427  36.095  0.00  0.00    +0.000 OA
ATOM     18  C22 UNL     1      20.552  31.574  36.657  0.00  0.00    +0.000 C 
ATOM     19  C23 UNL     1      19.934  32.917  36.169  0.00  0.00    +0.000 C 
ATOM     20  C24 UNL     1      20.608  34.237  36.664  0.00  0.00    +0.000 C 
ATOM     21  C25 UNL     1      20.320  35.344  35.589  0.00  0.00    +0.000 C 
ATOM     22  C26 UNL     1      20.667  36.785  36.022  0.00  0.00    +0.000 C 
ATOM     23  C27 UNL     1      19.978  37.149  37.361  0.00  0.00    +0.000 C 
ATOM     24  C28 UNL     1      18.419  37.161  37.177  0.00  0.00    +0.000 C 
ENDROOT
BRANCH   1  25
ATOM     25  C6  UNL     1      19.867  39.877  37.523  0.00  0.00    +0.000 C 
ATOM     26  C7  UNL     1      19.796  40.857  38.717  0.00  0.00    +0.000 C 
BRANCH  25  27
ATOM     27  C5  UNL     1      20.704  40.446  36.313  0.00  0.00    +0.000 C 
BRANCH  27  31
ATOM     28  C1  UNL     1      17.411  38.349  33.224  0.00  0.00    +0.000 C 
ATOM     29  C2  UNL     1      18.642  39.019  33.743  0.00  0.00    +0.000 C 
ATOM     30  C3  UNL     1      18.694  39.880  34.753  0.00  0.00    +0.000 C 
ATOM     31  C4  UNL     1      20.091  40.433  34.881  0.00  0.00    +0.000 C 
ATOM     32  O7  UNL     1      20.854  39.681  33.943  0.00  0.00    +0.000 OA
ATOM     33  C29 UNL     1      19.981  38.902  33.205  0.00  0.00    +0.000 C 
ATOM     34  O8  UNL     1      20.329  38.173  32.239  0.00  0.00    +0.000 OA
ENDBRANCH  27  31
BRANCH  27  35
ATOM     35  O1  UNL     1      21.906  39.725  36.236  0.00  0.00    +0.000 OA
ATOM     36  H7  UNL     1      22.109  39.576  35.275  0.00  0.00    +0.000 HD
ENDBRANCH  27  35
ENDBRANCH  25  27
ENDBRANCH   1  25
BRANCH   4  37
ATOM     37  O2  UNL     1      21.898  36.150  38.449  0.00  0.00    +0.000 OA
ATOM     38  H17 UNL     1      22.245  36.283  37.530  0.00  0.00    +0.000 HD
ENDBRANCH   4  37
BRANCH  20  39
ATOM     39  O6  UNL     1      22.002  34.063  36.782  0.00  0.00    +0.000 OA
ATOM     40  H35 UNL     1      22.179  33.126  37.060  0.00  0.00    +0.000 HD
ENDBRANCH  20  39
TORSDOF 6
ENDMDL
MODEL 6
REMARK VINA RESULT:    -6.922     14.211     16.769
REMARK INTER + INTRA:          -9.395
REMARK INTER:                  -8.929
REMARK INTRA:                  -0.466
REMARK UNBOUND:                -0.651
REMARK  Name = CNP0148074_1.pdb
REMARK  11 active torsions:
REMARK  status: ('A' for Active; 'I' for Inactive)
REMARK    1  A    between atoms: C1_1  and  C2_2
REMARK    2  A    between atoms: C4_4  and  C5_5
REMARK    3  A    between atoms: C5_5  and  O1_6
REMARK    4  A    between atoms: C5_5  and  C6_7
REMARK    5  A    between atoms: C6_7  and  C7_8
REMARK    6  A    between atoms: C6_7  and  C8_9
REMARK    7  A    between atoms: C11_12  and  O2_13
REMARK    8  A    between atoms: C16_18  and  C17_19
REMARK    9  A    between atoms: C16_18  and  C18_20
REMARK   10  A    between atoms: C24_29  and  O6_30
REMARK   11  A    between atoms: C27_33  and  C28_34
REMARK                            x       y       z     vdW  Elec       q    Type
REMARK                         _______ _______ _______ _____ _____    ______ ____
ROOT
ATOM      1  C8  UNL     1       9.783  48.253  44.180  0.00  0.00    +0.000 C 
ATOM      2  C9  UNL     1       8.275  47.879  44.301  0.00  0.00    +0.000 C 
ATOM      3  C10 UNL     1       7.761  47.547  42.892  0.00  0.00    +0.000 C 
ATOM      4  C11 UNL     1       9.030  47.466  42.037  0.00  0.00    +0.000 C 
ATOM      5  C12 UNL     1       8.860  47.650  40.489  0.00  0.00    +0.000 C 
ATOM      6  C13 UNL     1       7.862  46.622  39.905  0.00  0.00    +0.000 C 
ATOM      7  C14 UNL     1       7.445  46.912  38.451  0.00  0.00    +0.000 C 
ATOM      8  C15 UNL     1       8.399  46.265  37.408  0.00  0.00    +0.000 C 
ATOM      9  C16 UNL     1       7.851  46.211  35.941  0.00  0.00    +0.000 C 
ATOM     10  C17 UNL     1       8.152  44.832  35.314  0.00  0.00    +0.000 C 
ATOM     11  C18 UNL     1       6.335  46.462  35.799  0.00  0.00    +0.000 C 
ATOM     12  O3  UNL     1       8.507  47.190  35.167  0.00  0.00    +0.000 OA
ATOM     13  C19 UNL     1       9.664  47.624  35.843  0.00  0.00    +0.000 C 
ATOM     14  C20 UNL     1      10.919  47.181  35.071  0.00  0.00    +0.000 C 
ATOM     15  C21 UNL     1      11.480  46.142  35.950  0.00  0.00    +0.000 C 
ATOM     16  O4  UNL     1      12.480  45.435  35.662  0.00  0.00    +0.000 OA
ATOM     17  O5  UNL     1      10.791  46.018  37.134  0.00  0.00    +0.000 OA
ATOM     18  C22 UNL     1       9.746  46.977  37.245  0.00  0.00    +0.000 C 
ATOM     19  C23 UNL     1      10.148  48.051  38.299  0.00  0.00    +0.000 C 
ATOM     20  C24 UNL     1      10.266  47.586  39.786  0.00  0.00    +0.000 C 
ATOM     21  C25 UNL     1      11.285  48.543  40.499  0.00  0.00    +0.000 C 
ATOM     22  C26 UNL     1      11.332  48.422  42.037  0.00  0.00    +0.000 C 
ATOM     23  C27 UNL     1       9.922  48.587  42.657  0.00  0.00    +0.000 C 
ATOM     24  C28 UNL     1       9.388  50.039  42.396  0.00  0.00    +0.000 C 
ENDROOT
BRANCH   1  25
ATOM     25  C6  UNL     1      10.243  49.297  45.278  0.00  0.00    +0.000 C 
ATOM     26  C7  UNL     1       9.331  49.149  46.519  0.00  0.00    +0.000 C 
BRANCH  25  27
ATOM     27  C5  UNL     1      11.776  49.160  45.626  0.00  0.00    +0.000 C 
BRANCH  27  31
ATOM     28  C1  UNL     1      15.688  51.162  47.965  0.00  0.00    +0.000 C 
ATOM     29  C2  UNL     1      14.429  50.400  47.703  0.00  0.00    +0.000 C 
ATOM     30  C3  UNL     1      13.497  50.717  46.813  0.00  0.00    +0.000 C 
ATOM     31  C4  UNL     1      12.323  49.779  46.947  0.00  0.00    +0.000 C 
ATOM     32  O7  UNL     1      12.756  48.808  47.894  0.00  0.00    +0.000 OA
ATOM     33  C29 UNL     1      13.971  49.222  48.409  0.00  0.00    +0.000 C 
ATOM     34  O8  UNL     1      14.589  48.623  49.328  0.00  0.00    +0.000 OA
ENDBRANCH  27  31
BRANCH  27  35
ATOM     35  O1  UNL     1      12.514  49.739  44.582  0.00  0.00    +0.000 OA
ATOM     36  H7  UNL     1      12.588  50.713  44.767  0.00  0.00    +0.000 HD
ENDBRANCH  27  35
ENDBRANCH  25  27
ENDBRANCH   1  25
BRANCH   4  37
ATOM     37  O2  UNL     1       9.643  46.209  42.282  0.00  0.00    +0.000 OA
ATOM     38  H17 UNL     1       9.043  45.657  42.846  0.00  0.00    +0.000 HD
ENDBRANCH   4  37
BRANCH  20  39
ATOM     39  O6  UNL     1      10.754  46.264  39.852  0.00  0.00    +0.000 OA
ATOM     40  H35 UNL     1      11.431  46.144  39.134  0.00  0.00    +0.000 HD
ENDBRANCH  20  39
TORSDOF 6
ENDMDL
MODEL 7
REMARK VINA RESULT:    -6.889     16.894     18.767
REMARK INTER + INTRA:          -9.352
REMARK INTER:                  -8.443
REMARK INTRA:                  -0.909
REMARK UNBOUND:                -0.651
REMARK  Name = CNP0148074_1.pdb
REMARK  11 active torsions:
REMARK  status: ('A' for Active; 'I' for Inactive)
REMARK    1  A    between atoms: C1_1  and  C2_2
REMARK    2  A    between atoms: C4_4  and  C5_5
REMARK    3  A    between atoms: C5_5  and  O1_6
REMARK    4  A    between atoms: C5_5  and  C6_7
REMARK    5  A    between atoms: C6_7  and  C7_8
REMARK    6  A    between atoms: C6_7  and  C8_9
REMARK    7  A    between atoms: C11_12  and  O2_13
REMARK    8  A    between atoms: C16_18  and  C17_19
REMARK    9  A    between atoms: C16_18  and  C18_20
REMARK   10  A    between atoms: C24_29  and  O6_30
REMARK   11  A    between atoms: C27_33  and  C28_34
REMARK                            x       y       z     vdW  Elec       q    Type
REMARK                         _______ _______ _______ _____ _____    ______ ____
ROOT
ATOM      1  C8  UNL     1      13.572  51.079  48.105  0.00  0.00    +0.000 C 
ATOM      2  C9  UNL     1      12.799  50.071  49.009  0.00  0.00    +0.000 C 
ATOM      3  C10 UNL     1      11.661  49.470  48.172  0.00  0.00    +0.000 C 
ATOM      4  C11 UNL     1      11.963  49.925  46.740  0.00  0.00    +0.000 C 
ATOM      5  C12 UNL     1      10.767  49.931  45.725  0.00  0.00    +0.000 C 
ATOM      6  C13 UNL     1      10.111  48.533  45.620  0.00  0.00    +0.000 C 
ATOM      7  C14 UNL     1       8.776  48.528  44.852  0.00  0.00    +0.000 C 
ATOM      8  C15 UNL     1       8.958  48.327  43.322  0.00  0.00    +0.000 C 
ATOM      9  C16 UNL     1       7.656  47.954  42.535  0.00  0.00    +0.000 C 
ATOM     10  C17 UNL     1       7.954  46.829  41.520  0.00  0.00    +0.000 C 
ATOM     11  C18 UNL     1       6.473  47.486  43.409  0.00  0.00    +0.000 C 
ATOM     12  O3  UNL     1       7.215  49.082  41.812  0.00  0.00    +0.000 OA
ATOM     13  C19 UNL     1       8.257  50.027  41.735  0.00  0.00    +0.000 C 
ATOM     14  C20 UNL     1       8.740  50.158  40.281  0.00  0.00    +0.000 C 
ATOM     15  C21 UNL     1      10.070  49.532  40.332  0.00  0.00    +0.000 C 
ATOM     16  O4  UNL     1      10.802  49.338  39.326  0.00  0.00    +0.000 OA
ATOM     17  O5  UNL     1      10.442  49.173  41.607  0.00  0.00    +0.000 OA
ATOM     18  C22 UNL     1       9.472  49.561  42.573  0.00  0.00    +0.000 C 
ATOM     19  C23 UNL     1      10.028  50.754  43.403  0.00  0.00    +0.000 C 
ATOM     20  C24 UNL     1      11.254  50.471  44.330  0.00  0.00    +0.000 C 
ATOM     21  C25 UNL     1      12.035  51.822  44.502  0.00  0.00    +0.000 C 
ATOM     22  C26 UNL     1      13.121  51.816  45.600  0.00  0.00    +0.000 C 
ATOM     23  C27 UNL     1      12.540  51.359  46.961  0.00  0.00    +0.000 C 
ATOM     24  C28 UNL     1      11.478  52.397  47.468  0.00  0.00    +0.000 C 
ENDROOT
BRANCH   1  25
ATOM     25  C6  UNL     1      14.207  52.274  48.927  0.00  0.00    +0.000 C 
ATOM     26  C7  UNL     1      13.891  52.070  50.427  0.00  0.00    +0.000 C 
BRANCH  25  27
ATOM     27  C5  UNL     1      15.750  52.439  48.643  0.00  0.00    +0.000 C 
BRANCH  27  31
ATOM     28  C1  UNL     1      18.132  51.504  44.373  0.00  0.00    +0.000 C 
ATOM     29  C2  UNL     1      17.609  52.215  45.580  0.00  0.00    +0.000 C 
ATOM     30  C3  UNL     1      16.441  51.992  46.170  0.00  0.00    +0.000 C 
ATOM     31  C4  UNL     1      16.224  53.001  47.270  0.00  0.00    +0.000 C 
ATOM     32  O7  UNL     1      17.455  53.713  47.341  0.00  0.00    +0.000 OA
ATOM     33  C29 UNL     1      18.248  53.308  46.283  0.00  0.00    +0.000 C 
ATOM     34  O8  UNL     1      19.375  53.802  46.014  0.00  0.00    +0.000 OA
ENDBRANCH  27  31
BRANCH  27  35
ATOM     35  O1  UNL     1      16.358  51.182  48.787  0.00  0.00    +0.000 OA
ATOM     36  H7  UNL     1      16.931  51.213  49.598  0.00  0.00    +0.000 HD
ENDBRANCH  27  35
ENDBRANCH  25  27
ENDBRANCH   1  25
BRANCH   4  37
ATOM     37  O2  UNL     1      12.994  49.095  46.226  0.00  0.00    +0.000 OA
ATOM     38  H17 UNL     1      13.826  49.625  46.132  0.00  0.00    +0.000 HD
ENDBRANCH   4  37
BRANCH  20  39
ATOM     39  O6  UNL     1      12.109  49.518  43.739  0.00  0.00    +0.000 OA
ATOM     40  H35 UNL     1      12.465  48.929  44.456  0.00  0.00    +0.000 HD
ENDBRANCH  20  39
TORSDOF 6
ENDMDL
MODEL 8
REMARK VINA RESULT:    -6.820      2.329      9.333
REMARK INTER + INTRA:          -9.266
REMARK INTER:                  -8.865
REMARK INTRA:                  -0.401
REMARK UNBOUND:                -0.651
REMARK  Name = CNP0148074_1.pdb
REMARK  11 active torsions:
REMARK  status: ('A' for Active; 'I' for Inactive)
REMARK    1  A    between atoms: C1_1  and  C2_2
REMARK    2  A    between atoms: C4_4  and  C5_5
REMARK    3  A    between atoms: C5_5  and  O1_6
REMARK    4  A    between atoms: C5_5  and  C6_7
REMARK    5  A    between atoms: C6_7  and  C7_8
REMARK    6  A    between atoms: C6_7  and  C8_9
REMARK    7  A    between atoms: C11_12  and  O2_13
REMARK    8  A    between atoms: C16_18  and  C17_19
REMARK    9  A    between atoms: C16_18  and  C18_20
REMARK   10  A    between atoms: C24_29  and  O6_30
REMARK   11  A    between atoms: C27_33  and  C28_34
REMARK                            x       y       z     vdW  Elec       q    Type
REMARK                         _______ _______ _______ _____ _____    ______ ____
ROOT
ATOM      1  C8  UNL     1      18.860  39.875  34.843  0.00  0.00    +0.000 C 
ATOM      2  C9  UNL     1      18.471  38.843  33.742  0.00  0.00    +0.000 C 
ATOM      3  C10 UNL     1      19.021  37.474  34.168  0.00  0.00    +0.000 C 
ATOM      4  C11 UNL     1      19.469  37.682  35.618  0.00  0.00    +0.000 C 
ATOM      5  C12 UNL     1      20.523  36.672  36.192  0.00  0.00    +0.000 C 
ATOM      6  C13 UNL     1      20.021  35.212  36.085  0.00  0.00    +0.000 C 
ATOM      7  C14 UNL     1      21.103  34.157  36.379  0.00  0.00    +0.000 C 
ATOM      8  C15 UNL     1      21.200  33.792  37.887  0.00  0.00    +0.000 C 
ATOM      9  C16 UNL     1      22.008  32.491  38.212  0.00  0.00    +0.000 C 
ATOM     10  C17 UNL     1      21.261  31.654  39.273  0.00  0.00    +0.000 C 
ATOM     11  C18 UNL     1      22.279  31.570  37.004  0.00  0.00    +0.000 C 
ATOM     12  O3  UNL     1      23.262  32.849  38.749  0.00  0.00    +0.000 OA
ATOM     13  C19 UNL     1      23.230  34.198  39.156  0.00  0.00    +0.000 C 
ATOM     14  C20 UNL     1      23.335  34.287  40.687  0.00  0.00    +0.000 C 
ATOM     15  C21 UNL     1      21.985  34.726  41.072  0.00  0.00    +0.000 C 
ATOM     16  O4  UNL     1      21.590  34.845  42.261  0.00  0.00    +0.000 OA
ATOM     17  O5  UNL     1      21.184  34.997  39.987  0.00  0.00    +0.000 OA
ATOM     18  C22 UNL     1      21.885  34.850  38.758  0.00  0.00    +0.000 C 
ATOM     19  C23 UNL     1      22.143  36.259  38.147  0.00  0.00    +0.000 C 
ATOM     20  C24 UNL     1      20.897  37.070  37.667  0.00  0.00    +0.000 C 
ATOM     21  C25 UNL     1      21.266  38.594  37.752  0.00  0.00    +0.000 C 
ATOM     22  C26 UNL     1      20.267  39.549  37.064  0.00  0.00    +0.000 C 
ATOM     23  C27 UNL     1      20.024  39.141  35.590  0.00  0.00    +0.000 C 
ATOM     24  C28 UNL     1      21.348  39.299  34.764  0.00  0.00    +0.000 C 
ENDROOT
BRANCH   1  25
ATOM     25  C6  UNL     1      19.068  41.334  34.266  0.00  0.00    +0.000 C 
ATOM     26  C7  UNL     1      19.729  41.229  32.872  0.00  0.00    +0.000 C 
BRANCH  25  27
ATOM     27  C5  UNL     1      17.727  42.165  34.247  0.00  0.00    +0.000 C 
BRANCH  27  31
ATOM     28  C1  UNL     1      18.423  45.498  30.615  0.00  0.00    +0.000 C 
ATOM     29  C2  UNL     1      18.410  44.848  31.961  0.00  0.00    +0.000 C 
ATOM     30  C3  UNL     1      17.494  43.997  32.407  0.00  0.00    +0.000 C 
ATOM     31  C4  UNL     1      17.761  43.672  33.855  0.00  0.00    +0.000 C 
ATOM     32  O7  UNL     1      19.006  44.304  34.134  0.00  0.00    +0.000 OA
ATOM     33  C29 UNL     1      19.352  45.075  33.038  0.00  0.00    +0.000 C 
ATOM     34  O8  UNL     1      20.363  45.823  32.991  0.00  0.00    +0.000 OA
ENDBRANCH  27  31
BRANCH  27  35
ATOM     35  O1  UNL     1      17.155  42.102  35.528  0.00  0.00    +0.000 OA
ATOM     36  H7  UNL     1      16.170  42.043  35.418  0.00  0.00    +0.000 HD
ENDBRANCH  27  35
ENDBRANCH  25  27
ENDBRANCH   1  25
BRANCH   4  37
ATOM     37  O2  UNL     1      18.313  37.651  36.442  0.00  0.00    +0.000 OA
ATOM     38  H17 UNL     1      18.506  38.116  37.296  0.00  0.00    +0.000 HD
ENDBRANCH   4  37
BRANCH  20  39
ATOM     39  O6  UNL     1      19.792  36.818  38.507  0.00  0.00    +0.000 OA
ATOM     40  H35 UNL     1      19.471  37.685  38.872  0.00  0.00    +0.000 HD
ENDBRANCH  20  39
TORSDOF 6
ENDMDL
MODEL 9
REMARK VINA RESULT:    -6.592      2.890      5.073
REMARK INTER + INTRA:          -8.977
REMARK INTER:                  -8.021
REMARK INTRA:                  -0.956
REMARK UNBOUND:                -0.651
REMARK  Name = CNP0148074_1.pdb
REMARK  11 active torsions:
REMARK  status: ('A' for Active; 'I' for Inactive)
REMARK    1  A    between atoms: C1_1  and  C2_2
REMARK    2  A    between atoms: C4_4  and  C5_5
REMARK    3  A    between atoms: C5_5  and  O1_6
REMARK    4  A    between atoms: C5_5  and  C6_7
REMARK    5  A    between atoms: C6_7  and  C7_8
REMARK    6  A    between atoms: C6_7  and  C8_9
REMARK    7  A    between atoms: C11_12  and  O2_13
REMARK    8  A    between atoms: C16_18  and  C17_19
REMARK    9  A    between atoms: C16_18  and  C18_20
REMARK   10  A    between atoms: C24_29  and  O6_30
REMARK   11  A    between atoms: C27_33  and  C28_34
REMARK                            x       y       z     vdW  Elec       q    Type
REMARK                         _______ _______ _______ _____ _____    ______ ____
ROOT
ATOM      1  C8  UNL     1      20.497  35.930  38.514  0.00  0.00    +0.000 C 
ATOM      2  C9  UNL     1      20.169  37.100  39.489  0.00  0.00    +0.000 C 
ATOM      3  C10 UNL     1      19.924  38.359  38.643  0.00  0.00    +0.000 C 
ATOM      4  C11 UNL     1      19.841  37.837  37.205  0.00  0.00    +0.000 C 
ATOM      5  C12 UNL     1      20.106  38.870  36.055  0.00  0.00    +0.000 C 
ATOM      6  C13 UNL     1      19.142  40.077  36.148  0.00  0.00    +0.000 C 
ATOM      7  C14 UNL     1      19.517  41.248  35.221  0.00  0.00    +0.000 C 
ATOM      8  C15 UNL     1      18.890  41.124  33.804  0.00  0.00    +0.000 C 
ATOM      9  C16 UNL     1      18.925  42.428  32.938  0.00  0.00    +0.000 C 
ATOM     10  C17 UNL     1      17.569  42.629  32.227  0.00  0.00    +0.000 C 
ATOM     11  C18 UNL     1      19.235  43.723  33.717  0.00  0.00    +0.000 C 
ATOM     12  O3  UNL     1      19.918  42.295  31.945  0.00  0.00    +0.000 OA
ATOM     13  C19 UNL     1      20.278  40.938  31.821  0.00  0.00    +0.000 C 
ATOM     14  C20 UNL     1      19.831  40.399  30.452  0.00  0.00    +0.000 C 
ATOM     15  C21 UNL     1      18.732  39.491  30.814  0.00  0.00    +0.000 C 
ATOM     16  O4  UNL     1      18.005  38.890  29.981  0.00  0.00    +0.000 OA
ATOM     17  O5  UNL     1      18.574  39.362  32.175  0.00  0.00    +0.000 OA
ATOM     18  C22 UNL     1      19.561  40.088  32.896  0.00  0.00    +0.000 C 
ATOM     19  C23 UNL     1      20.568  39.086  33.533  0.00  0.00    +0.000 C 
ATOM     20  C24 UNL     1      20.027  38.147  34.660  0.00  0.00    +0.000 C 
ATOM     21  C25 UNL     1      20.913  36.852  34.658  0.00  0.00    +0.000 C 
ATOM     22  C26 UNL     1      20.716  35.920  35.873  0.00  0.00    +0.000 C 
ATOM     23  C27 UNL     1      20.899  36.689  37.205  0.00  0.00    +0.000 C 
ATOM     24  C28 UNL     1      22.379  37.192  37.335  0.00  0.00    +0.000 C 
ENDROOT
BRANCH   1  25
ATOM     25  C6  UNL     1      21.469  34.856  39.153  0.00  0.00    +0.000 C 
ATOM     26  C7  UNL     1      21.273  34.858  40.687  0.00  0.00    +0.000 C 
BRANCH  25  27
ATOM     27  C5  UNL     1      21.281  33.426  38.514  0.00  0.00    +0.000 C 
BRANCH  27  31
ATOM     28  C1  UNL     1      17.448  30.274  38.914  0.00  0.00    +0.000 C 
ATOM     29  C2  UNL     1      18.474  31.195  38.335  0.00  0.00    +0.000 C 
ATOM     30  C3  UNL     1      18.984  32.266  38.930  0.00  0.00    +0.000 C 
ATOM     31  C4  UNL     1      19.884  33.003  37.970  0.00  0.00    +0.000 C 
ATOM     32  O7  UNL     1      19.951  32.154  36.829  0.00  0.00    +0.000 OA
ATOM     33  C29 UNL     1      19.047  31.122  37.007  0.00  0.00    +0.000 C 
ATOM     34  O8  UNL     1      18.805  30.238  36.144  0.00  0.00    +0.000 OA
ENDBRANCH  27  31
BRANCH  27  35
ATOM     35  O1  UNL     1      21.637  32.468  39.477  0.00  0.00    +0.000 OA
ATOM     36  H7  UNL     1      21.286  32.774  40.354  0.00  0.00    +0.000 HD
ENDBRANCH  27  35
ENDBRANCH  25  27
ENDBRANCH   1  25
BRANCH   4  37
ATOM     37  O2  UNL     1      18.553  37.269  37.020  0.00  0.00    +0.000 OA
ATOM     38  H17 UNL     1      18.635  36.440  36.483  0.00  0.00    +0.000 HD
ENDBRANCH   4  37
BRANCH  20  39
ATOM     39  O6  UNL     1      18.688  37.788  34.401  0.00  0.00    +0.000 OA
ATOM     40  H35 UNL     1      18.235  38.559  33.969  0.00  0.00    +0.000 HD
ENDBRANCH  20  39
TORSDOF 6
ENDMDL
MODEL 10
REMARK VINA RESULT:    -6.371      1.914      3.174
REMARK INTER + INTRA:          -8.698
REMARK INTER:                  -7.925
REMARK INTRA:                  -0.773
REMARK UNBOUND:                -0.651
REMARK  Name = CNP0148074_1.pdb
REMARK  11 active torsions:
REMARK  status: ('A' for Active; 'I' for Inactive)
REMARK    1  A    between atoms: C1_1  and  C2_2
REMARK    2  A    between atoms: C4_4  and  C5_5
REMARK    3  A    between atoms: C5_5  and  O1_6
REMARK    4  A    between atoms: C5_5  and  C6_7
REMARK    5  A    between atoms: C6_7  and  C7_8
REMARK    6  A    between atoms: C6_7  and  C8_9
REMARK    7  A    between atoms: C11_12  and  O2_13
REMARK    8  A    between atoms: C16_18  and  C17_19
REMARK    9  A    between atoms: C16_18  and  C18_20
REMARK   10  A    between atoms: C24_29  and  O6_30
REMARK   11  A    between atoms: C27_33  and  C28_34
REMARK                            x       y       z     vdW  Elec       q    Type
REMARK                         _______ _______ _______ _____ _____    ______ ____
ROOT
ATOM      1  C8  UNL     1      20.928  36.252  37.596  0.00  0.00    +0.000 C 
ATOM      2  C9  UNL     1      19.435  36.422  38.008  0.00  0.00    +0.000 C 
ATOM      3  C10 UNL     1      18.848  37.571  37.176  0.00  0.00    +0.000 C 
ATOM      4  C11 UNL     1      19.917  37.855  36.116  0.00  0.00    +0.000 C 
ATOM      5  C12 UNL     1      19.889  39.266  35.433  0.00  0.00    +0.000 C 
ATOM      6  C13 UNL     1      18.519  39.544  34.769  0.00  0.00    +0.000 C 
ATOM      7  C14 UNL     1      18.330  41.004  34.316  0.00  0.00    +0.000 C 
ATOM      8  C15 UNL     1      18.845  41.261  32.873  0.00  0.00    +0.000 C 
ATOM      9  C16 UNL     1      18.369  42.602  32.219  0.00  0.00    +0.000 C 
ATOM     10  C17 UNL     1      17.945  42.357  30.755  0.00  0.00    +0.000 C 
ATOM     11  C18 UNL     1      17.188  43.295  32.932  0.00  0.00    +0.000 C 
ATOM     12  O3  UNL     1      19.442  43.518  32.211  0.00  0.00    +0.000 OA
ATOM     13  C19 UNL     1      20.649  42.827  32.438  0.00  0.00    +0.000 C 
ATOM     14  C20 UNL     1      21.523  42.870  31.173  0.00  0.00    +0.000 C 
ATOM     15  C21 UNL     1      21.469  41.477  30.705  0.00  0.00    +0.000 C 
ATOM     16  O4  UNL     1      21.982  41.070  29.630  0.00  0.00    +0.000 OA
ATOM     17  O5  UNL     1      20.792  40.649  31.571  0.00  0.00    +0.000 OA
ATOM     18  C22 UNL     1      20.370  41.337  32.743  0.00  0.00    +0.000 C 
ATOM     19  C23 UNL     1      21.240  40.874  33.947  0.00  0.00    +0.000 C 
ATOM     20  C24 UNL     1      21.083  39.391  34.416  0.00  0.00    +0.000 C 
ATOM     21  C25 UNL     1      22.433  38.966  35.094  0.00  0.00    +0.000 C 
ATOM     22  C26 UNL     1      22.387  37.630  35.866  0.00  0.00    +0.000 C 
ATOM     23  C27 UNL     1      21.242  37.623  36.908  0.00  0.00    +0.000 C 
ATOM     24  C28 UNL     1      21.515  38.703  38.013  0.00  0.00    +0.000 C 
ENDROOT
BRANCH   1  25
ATOM     25  C6  UNL     1      21.832  35.719  38.781  0.00  0.00    +0.000 C 
ATOM     26  C7  UNL     1      20.937  35.471  40.017  0.00  0.00    +0.000 C 
BRANCH  25  27
ATOM     27  C5  UNL     1      22.671  34.449  38.367  0.00  0.00    +0.000 C 
BRANCH  27  31
ATOM     28  C1  UNL     1      25.723  35.309  42.205  0.00  0.00    +0.000 C 
ATOM     29  C2  UNL     1      25.220  35.081  40.816  0.00  0.00    +0.000 C 
ATOM     30  C3  UNL     1      24.198  34.305  40.476  0.00  0.00    +0.000 C 
ATOM     31  C4  UNL     1      24.090  34.233  38.973  0.00  0.00    +0.000 C 
ATOM     32  O7  UNL     1      25.056  35.170  38.506  0.00  0.00    +0.000 OA
ATOM     33  C29 UNL     1      25.787  35.611  39.594  0.00  0.00    +0.000 C 
ATOM     34  O8  UNL     1      26.772  36.392  39.514  0.00  0.00    +0.000 OA
ENDBRANCH  27  31
BRANCH  27  35
ATOM     35  O1  UNL     1      22.834  34.468  36.973  0.00  0.00    +0.000 OA
ATOM     36  H7  UNL     1      23.674  34.959  36.773  0.00  0.00    +0.000 HD
ENDBRANCH  27  35
ENDBRANCH  25  27
ENDBRANCH   1  25
BRANCH   4  37
ATOM     37  O2  UNL     1      19.810  36.859  35.109  0.00  0.00    +0.000 OA
ATOM     38  H17 UNL     1      19.911  35.963  35.522  0.00  0.00    +0.000 HD
ENDBRANCH   4  37
BRANCH  20  39
ATOM     39  O6  UNL     1      20.838  38.549  33.311  0.00  0.00    +0.000 OA
ATOM     40  H35 UNL     1      20.163  37.871  33.578  0.00  0.00    +0.000 HD
ENDBRANCH  20  39
TORSDOF 6
ENDMDL
