MODEL 1
REMARK VINA RESULT:    -7.602      0.000      0.000
REMARK INTER + INTRA:          -8.046
REMARK INTER:                  -8.046
REMARK INTRA:                   0.000
REMARK UNBOUND:                 0.000
REMARK  Name = CNP0071486_1.pdb
REMARK  8 active torsions:
REMARK  status: ('A' for Active; 'I' for Inactive)
REMARK    1  A    between atoms: C1_1  and  C2_2
REMARK    2  A    between atoms: C4_4  and  O1_5
REMARK    3  A    between atoms: C11_12  and  C12_13
REMARK    4  A    between atoms: C11_12  and  C13_14
REMARK    5  A    between atoms: C17_18  and  C18_19
REMARK    6  A    between atoms: C22_26  and  C23_27
REMARK    7  A    between atoms: C30_36  and  O7_37
REMARK    8  A    between atoms: C31_38  and  C32_39
REMARK                            x       y       z     vdW  Elec       q    Type
REMARK                         _______ _______ _______ _____ _____    ______ ____
ROOT
ATOM      1  C1  UNL     1      21.488  28.875  39.195  0.00  0.00    +0.000 C 
ATOM      2  C2  UNL     1      20.376  29.885  39.097  0.00  0.00    +0.000 A 
ATOM      3  C3  UNL     1      19.051  29.430  38.974  0.00  0.00    +0.000 A 
ATOM      4  C4  UNL     1      17.993  30.336  38.882  0.00  0.00    +0.000 A 
ATOM      5  C5  UNL     1      18.249  31.711  38.903  0.00  0.00    +0.000 A 
ATOM      6  C6  UNL     1      19.559  32.186  39.015  0.00  0.00    +0.000 A 
ATOM      7  C7  UNL     1      20.636  31.277  39.147  0.00  0.00    +0.000 A 
ATOM      8  C8  UNL     1      22.057  31.801  39.285  0.00  0.00    +0.000 C 
ATOM      9  C9  UNL     1      22.095  33.294  39.678  0.00  0.00    +0.000 C 
ATOM     10  C10 UNL     1      23.543  33.835  39.992  0.00  0.00    +0.000 C 
ATOM     11  C11 UNL     1      24.620  34.269  38.919  0.00  0.00    +0.000 C 
ATOM     12  C12 UNL     1      24.818  33.231  37.789  0.00  0.00    +0.000 C 
ATOM     13  C13 UNL     1      25.987  34.304  39.659  0.00  0.00    +0.000 C 
ATOM     14  C14 UNL     1      24.389  35.737  38.503  0.00  0.00    +0.000 C 
ATOM     15  C15 UNL     1      24.218  36.366  37.313  0.00  0.00    +0.000 C 
ATOM     16  C16 UNL     1      23.972  35.799  35.931  0.00  0.00    +0.000 C 
ATOM     17  C17 UNL     1      22.727  36.455  35.244  0.00  0.00    +0.000 C 
ATOM     18  C18 UNL     1      22.440  35.668  33.946  0.00  0.00    +0.000 C 
ATOM     19  O2  UNL     1      23.167  37.761  34.846  0.00  0.00    +0.000 OA
ATOM     20  C19 UNL     1      22.341  38.870  34.637  0.00  0.00    +0.000 C 
ATOM     21  C20 UNL     1      22.804  39.851  33.862  0.00  0.00    +0.000 C 
ATOM     22  C21 UNL     1      21.994  41.039  33.610  0.00  0.00    +0.000 C 
ATOM     23  O3  UNL     1      22.490  42.022  33.003  0.00  0.00    +0.000 OA
ATOM     24  O4  UNL     1      20.673  41.088  34.050  0.00  0.00    +0.000 OA
ATOM     25  C22 UNL     1      19.993  39.971  34.644  0.00  0.00    +0.000 C 
ATOM     26  C23 UNL     1      19.092  39.349  33.570  0.00  0.00    +0.000 C 
ATOM     27  C24 UNL     1      19.175  40.534  35.823  0.00  0.00    +0.000 C 
ATOM     28  C25 UNL     1      20.148  40.414  36.935  0.00  0.00    +0.000 C 
ATOM     29  O5  UNL     1      20.065  41.045  38.023  0.00  0.00    +0.000 OA
ATOM     30  O6  UNL     1      21.196  39.564  36.629  0.00  0.00    +0.000 OA
ATOM     31  C26 UNL     1      21.009  38.978  35.342  0.00  0.00    +0.000 C 
ATOM     32  C27 UNL     1      20.417  37.559  35.532  0.00  0.00    +0.000 C 
ATOM     33  C28 UNL     1      21.426  36.575  36.167  0.00  0.00    +0.000 C 
ATOM     34  C29 UNL     1      20.649  35.255  36.477  0.00  0.00    +0.000 C 
ATOM     35  C30 UNL     1      21.418  34.222  37.337  0.00  0.00    +0.000 C 
ATOM     36  C31 UNL     1      21.070  34.165  38.857  0.00  0.00    +0.000 C 
ATOM     37  C32 UNL     1      20.990  35.571  39.486  0.00  0.00    +0.000 C 
ATOM     38  O8  UNL     1      19.776  33.572  38.995  0.00  0.00    +0.000 OA
ENDROOT
BRANCH   4  39
ATOM     39  O1  UNL     1      16.689  29.858  38.764  0.00  0.00    +0.000 OA
ATOM     40  H5  UNL     1      16.500  28.878  38.601  0.00  0.00    +0.000 HD
ENDBRANCH   4  39
BRANCH  35  41
ATOM     41  O7  UNL     1      21.267  32.954  36.745  0.00  0.00    +0.000 OA
ATOM     42  H37 UNL     1      21.154  33.103  35.765  0.00  0.00    +0.000 HD
ENDBRANCH  35  41
TORSDOF 2
ENDMDL
MODEL 2
REMARK VINA RESULT:    -7.314      2.988      8.581
REMARK INTER + INTRA:          -7.742
REMARK INTER:                  -7.742
REMARK INTRA:                   0.000
REMARK UNBOUND:                 0.000
REMARK  Name = CNP0071486_1.pdb
REMARK  8 active torsions:
REMARK  status: ('A' for Active; 'I' for Inactive)
REMARK    1  A    between atoms: C1_1  and  C2_2
REMARK    2  A    between atoms: C4_4  and  O1_5
REMARK    3  A    between atoms: C11_12  and  C12_13
REMARK    4  A    between atoms: C11_12  and  C13_14
REMARK    5  A    between atoms: C17_18  and  C18_19
REMARK    6  A    between atoms: C22_26  and  C23_27
REMARK    7  A    between atoms: C30_36  and  O7_37
REMARK    8  A    between atoms: C31_38  and  C32_39
REMARK                            x       y       z     vdW  Elec       q    Type
REMARK                         _______ _______ _______ _____ _____    ______ ____
ROOT
ATOM      1  C1  UNL     1      19.856  40.879  36.336  0.00  0.00    +0.000 C 
ATOM      2  C2  UNL     1      19.779  40.060  37.597  0.00  0.00    +0.000 A 
ATOM      3  C3  UNL     1      19.420  40.694  38.800  0.00  0.00    +0.000 A 
ATOM      4  C4  UNL     1      19.336  39.967  39.989  0.00  0.00    +0.000 A 
ATOM      5  C5  UNL     1      19.619  38.597  39.990  0.00  0.00    +0.000 A 
ATOM      6  C6  UNL     1      19.986  37.948  38.808  0.00  0.00    +0.000 A 
ATOM      7  C7  UNL     1      20.038  38.667  37.590  0.00  0.00    +0.000 A 
ATOM      8  C8  UNL     1      20.423  37.952  36.304  0.00  0.00    +0.000 C 
ATOM      9  C9  UNL     1      20.310  36.417  36.431  0.00  0.00    +0.000 C 
ATOM     10  C10 UNL     1      20.540  35.645  35.076  0.00  0.00    +0.000 C 
ATOM     11  C11 UNL     1      21.944  35.314  34.428  0.00  0.00    +0.000 C 
ATOM     12  C12 UNL     1      22.895  36.532  34.360  0.00  0.00    +0.000 C 
ATOM     13  C13 UNL     1      21.667  34.953  32.941  0.00  0.00    +0.000 C 
ATOM     14  C14 UNL     1      22.505  34.005  35.025  0.00  0.00    +0.000 C 
ATOM     15  C15 UNL     1      23.675  33.667  35.624  0.00  0.00    +0.000 C 
ATOM     16  C16 UNL     1      24.806  34.537  36.130  0.00  0.00    +0.000 C 
ATOM     17  C17 UNL     1      25.183  34.201  37.611  0.00  0.00    +0.000 C 
ATOM     18  C18 UNL     1      26.187  35.273  38.093  0.00  0.00    +0.000 C 
ATOM     19  O2  UNL     1      25.904  32.963  37.541  0.00  0.00    +0.000 OA
ATOM     20  C19 UNL     1      26.033  32.035  38.579  0.00  0.00    +0.000 C 
ATOM     21  C20 UNL     1      27.062  31.189  38.529  0.00  0.00    +0.000 C 
ATOM     22  C21 UNL     1      27.249  30.191  39.579  0.00  0.00    +0.000 C 
ATOM     23  O3  UNL     1      28.129  29.303  39.453  0.00  0.00    +0.000 OA
ATOM     24  O4  UNL     1      26.445  30.217  40.717  0.00  0.00    +0.000 OA
ATOM     25  C22 UNL     1      25.499  31.261  40.996  0.00  0.00    +0.000 C 
ATOM     26  C23 UNL     1      26.134  32.203  42.026  0.00  0.00    +0.000 C 
ATOM     27  C24 UNL     1      24.237  30.571  41.550  0.00  0.00    +0.000 C 
ATOM     28  C25 UNL     1      23.467  30.332  40.307  0.00  0.00    +0.000 C 
ATOM     29  O5  UNL     1      22.523  29.503  40.204  0.00  0.00    +0.000 OA
ATOM     30  O6  UNL     1      23.931  31.089  39.245  0.00  0.00    +0.000 OA
ATOM     31  C26 UNL     1      24.987  31.950  39.666  0.00  0.00    +0.000 C 
ATOM     32  C27 UNL     1      24.397  33.361  39.916  0.00  0.00    +0.000 C 
ATOM     33  C28 UNL     1      23.944  34.055  38.612  0.00  0.00    +0.000 C 
ATOM     34  C29 UNL     1      23.203  35.368  39.023  0.00  0.00    +0.000 C 
ATOM     35  C30 UNL     1      22.456  36.093  37.876  0.00  0.00    +0.000 C 
ATOM     36  C31 UNL     1      20.914  35.873  37.781  0.00  0.00    +0.000 C 
ATOM     37  C32 UNL     1      20.530  34.388  37.941  0.00  0.00    +0.000 C 
ATOM     38  O8  UNL     1      20.298  36.582  38.860  0.00  0.00    +0.000 OA
ENDROOT
BRANCH   4  39
ATOM     39  O1  UNL     1      18.975  40.619  41.167  0.00  0.00    +0.000 OA
ATOM     40  H5  UNL     1      18.904  40.120  42.044  0.00  0.00    +0.000 HD
ENDBRANCH   4  39
BRANCH  35  41
ATOM     41  O7  UNL     1      22.760  37.466  37.949  0.00  0.00    +0.000 OA
ATOM     42  H37 UNL     1      23.734  37.537  38.150  0.00  0.00    +0.000 HD
ENDBRANCH  35  41
TORSDOF 2
ENDMDL
MODEL 3
REMARK VINA RESULT:    -6.975      3.666      6.412
REMARK INTER + INTRA:          -7.383
REMARK INTER:                  -7.383
REMARK INTRA:                   0.000
REMARK UNBOUND:                 0.000
REMARK  Name = CNP0071486_1.pdb
REMARK  8 active torsions:
REMARK  status: ('A' for Active; 'I' for Inactive)
REMARK    1  A    between atoms: C1_1  and  C2_2
REMARK    2  A    between atoms: C4_4  and  O1_5
REMARK    3  A    between atoms: C11_12  and  C12_13
REMARK    4  A    between atoms: C11_12  and  C13_14
REMARK    5  A    between atoms: C17_18  and  C18_19
REMARK    6  A    between atoms: C22_26  and  C23_27
REMARK    7  A    between atoms: C30_36  and  O7_37
REMARK    8  A    between atoms: C31_38  and  C32_39
REMARK                            x       y       z     vdW  Elec       q    Type
REMARK                         _______ _______ _______ _____ _____    ______ ____
ROOT
ATOM      1  C1  UNL     1      26.229  36.227  39.219  0.00  0.00    +0.000 C 
ATOM      2  C2  UNL     1      25.794  35.169  38.239  0.00  0.00    +0.000 A 
ATOM      3  C3  UNL     1      26.766  34.327  37.669  0.00  0.00    +0.000 A 
ATOM      4  C4  UNL     1      26.401  33.333  36.759  0.00  0.00    +0.000 A 
ATOM      5  C5  UNL     1      25.058  33.175  36.402  0.00  0.00    +0.000 A 
ATOM      6  C6  UNL     1      24.076  34.007  36.948  0.00  0.00    +0.000 A 
ATOM      7  C7  UNL     1      24.430  34.993  37.901  0.00  0.00    +0.000 A 
ATOM      8  C8  UNL     1      23.355  35.884  38.503  0.00  0.00    +0.000 C 
ATOM      9  C9  UNL     1      21.936  35.312  38.295  0.00  0.00    +0.000 C 
ATOM     10  C10 UNL     1      20.806  36.117  39.045  0.00  0.00    +0.000 C 
ATOM     11  C11 UNL     1      20.147  37.465  38.549  0.00  0.00    +0.000 C 
ATOM     12  C12 UNL     1      21.179  38.534  38.117  0.00  0.00    +0.000 C 
ATOM     13  C13 UNL     1      19.436  38.087  39.784  0.00  0.00    +0.000 C 
ATOM     14  C14 UNL     1      18.990  37.160  37.574  0.00  0.00    +0.000 C 
ATOM     15  C15 UNL     1      18.687  37.560  36.314  0.00  0.00    +0.000 C 
ATOM     16  C16 UNL     1      19.519  38.313  35.296  0.00  0.00    +0.000 C 
ATOM     17  C17 UNL     1      19.550  37.582  33.913  0.00  0.00    +0.000 C 
ATOM     18  C18 UNL     1      20.584  38.310  33.023  0.00  0.00    +0.000 C 
ATOM     19  O2  UNL     1      18.262  37.827  33.332  0.00  0.00    +0.000 OA
ATOM     20  C19 UNL     1      17.638  37.031  32.367  0.00  0.00    +0.000 C 
ATOM     21  C20 UNL     1      16.692  37.594  31.615  0.00  0.00    +0.000 C 
ATOM     22  C21 UNL     1      15.998  36.815  30.595  0.00  0.00    +0.000 C 
ATOM     23  O3  UNL     1      15.010  37.305  29.992  0.00  0.00    +0.000 OA
ATOM     24  O4  UNL     1      16.425  35.523  30.292  0.00  0.00    +0.000 OA
ATOM     25  C22 UNL     1      17.611  34.931  30.845  0.00  0.00    +0.000 C 
ATOM     26  C23 UNL     1      18.712  35.011  29.780  0.00  0.00    +0.000 C 
ATOM     27  C24 UNL     1      17.251  33.472  31.190  0.00  0.00    +0.000 C 
ATOM     28  C25 UNL     1      16.782  33.611  32.589  0.00  0.00    +0.000 C 
ATOM     29  O5  UNL     1      16.075  32.758  33.190  0.00  0.00    +0.000 OA
ATOM     30  O6  UNL     1      17.164  34.814  33.156  0.00  0.00    +0.000 OA
ATOM     31  C26 UNL     1      17.974  35.562  32.251  0.00  0.00    +0.000 C 
ATOM     32  C27 UNL     1      19.460  35.348  32.632  0.00  0.00    +0.000 C 
ATOM     33  C28 UNL     1      19.828  36.009  33.981  0.00  0.00    +0.000 C 
ATOM     34  C29 UNL     1      21.282  35.557  34.333  0.00  0.00    +0.000 C 
ATOM     35  C30 UNL     1      21.756  35.912  35.764  0.00  0.00    +0.000 C 
ATOM     36  C31 UNL     1      21.706  34.775  36.831  0.00  0.00    +0.000 C 
ATOM     37  C32 UNL     1      20.376  33.996  36.786  0.00  0.00    +0.000 C 
ATOM     38  O8  UNL     1      22.746  33.840  36.534  0.00  0.00    +0.000 OA
ENDROOT
BRANCH   4  39
ATOM     39  O1  UNL     1      27.383  32.511  36.212  0.00  0.00    +0.000 OA
ATOM     40  H5  UNL     1      27.712  32.641  35.264  0.00  0.00    +0.000 HD
ENDBRANCH   4  39
BRANCH  35  41
ATOM     41  O7  UNL     1      23.052  36.456  35.678  0.00  0.00    +0.000 OA
ATOM     42  H37 UNL     1      23.479  36.062  34.867  0.00  0.00    +0.000 HD
ENDBRANCH  35  41
TORSDOF 2
ENDMDL
MODEL 4
REMARK VINA RESULT:    -6.890      2.634      5.093
REMARK INTER + INTRA:          -7.293
REMARK INTER:                  -7.293
REMARK INTRA:                   0.000
REMARK UNBOUND:                 0.000
REMARK  Name = CNP0071486_1.pdb
REMARK  8 active torsions:
REMARK  status: ('A' for Active; 'I' for Inactive)
REMARK    1  A    between atoms: C1_1  and  C2_2
REMARK    2  A    between atoms: C4_4  and  O1_5
REMARK    3  A    between atoms: C11_12  and  C12_13
REMARK    4  A    between atoms: C11_12  and  C13_14
REMARK    5  A    between atoms: C17_18  and  C18_19
REMARK    6  A    between atoms: C22_26  and  C23_27
REMARK    7  A    between atoms: C30_36  and  O7_37
REMARK    8  A    between atoms: C31_38  and  C32_39
REMARK                            x       y       z     vdW  Elec       q    Type
REMARK                         _______ _______ _______ _____ _____    ______ ____
ROOT
ATOM      1  C1  UNL     1      22.814  34.299  40.265  0.00  0.00    +0.000 C 
ATOM      2  C2  UNL     1      22.090  33.871  39.016  0.00  0.00    +0.000 A 
ATOM      3  C3  UNL     1      22.294  32.569  38.522  0.00  0.00    +0.000 A 
ATOM      4  C4  UNL     1      21.639  32.135  37.368  0.00  0.00    +0.000 A 
ATOM      5  C5  UNL     1      20.777  33.002  36.688  0.00  0.00    +0.000 A 
ATOM      6  C6  UNL     1      20.567  34.302  37.155  0.00  0.00    +0.000 A 
ATOM      7  C7  UNL     1      21.196  34.741  38.345  0.00  0.00    +0.000 A 
ATOM      8  C8  UNL     1      20.950  36.152  38.856  0.00  0.00    +0.000 C 
ATOM      9  C9  UNL     1      19.702  36.797  38.216  0.00  0.00    +0.000 C 
ATOM     10  C10 UNL     1      19.315  38.194  38.837  0.00  0.00    +0.000 C 
ATOM     11  C11 UNL     1      19.995  39.579  38.491  0.00  0.00    +0.000 C 
ATOM     12  C12 UNL     1      21.540  39.536  38.537  0.00  0.00    +0.000 C 
ATOM     13  C13 UNL     1      19.599  40.559  39.632  0.00  0.00    +0.000 C 
ATOM     14  C14 UNL     1      19.337  40.191  37.236  0.00  0.00    +0.000 C 
ATOM     15  C15 UNL     1      19.811  40.649  36.050  0.00  0.00    +0.000 C 
ATOM     16  C16 UNL     1      21.185  40.521  35.427  0.00  0.00    +0.000 C 
ATOM     17  C17 UNL     1      21.114  39.961  33.967  0.00  0.00    +0.000 C 
ATOM     18  C18 UNL     1      22.561  39.672  33.507  0.00  0.00    +0.000 C 
ATOM     19  O2  UNL     1      20.639  41.055  33.171  0.00  0.00    +0.000 OA
ATOM     20  C19 UNL     1      19.975  40.943  31.946  0.00  0.00    +0.000 C 
ATOM     21  C20 UNL     1      19.995  41.997  31.130  0.00  0.00    +0.000 C 
ATOM     22  C21 UNL     1      19.314  41.946  29.840  0.00  0.00    +0.000 C 
ATOM     23  O3  UNL     1      19.211  42.987  29.141  0.00  0.00    +0.000 OA
ATOM     24  O4  UNL     1      18.771  40.746  29.384  0.00  0.00    +0.000 OA
ATOM     25  C22 UNL     1      18.944  39.491  30.059  0.00  0.00    +0.000 C 
ATOM     26  C23 UNL     1      20.032  38.708  29.315  0.00  0.00    +0.000 C 
ATOM     27  C24 UNL     1      17.581  38.773  30.005  0.00  0.00    +0.000 C 
ATOM     28  C25 UNL     1      16.950  39.253  31.257  0.00  0.00    +0.000 C 
ATOM     29  O5  UNL     1      15.712  39.209  31.492  0.00  0.00    +0.000 OA
ATOM     30  O6  UNL     1      17.868  39.807  32.132  0.00  0.00    +0.000 OA
ATOM     31  C26 UNL     1      19.191  39.695  31.610  0.00  0.00    +0.000 C 
ATOM     32  C27 UNL     1      19.876  38.471  32.269  0.00  0.00    +0.000 C 
ATOM     33  C28 UNL     1      20.163  38.690  33.772  0.00  0.00    +0.000 C 
ATOM     34  C29 UNL     1      20.669  37.328  34.347  0.00  0.00    +0.000 C 
ATOM     35  C30 UNL     1      20.784  37.263  35.890  0.00  0.00    +0.000 C 
ATOM     36  C31 UNL     1      19.625  36.558  36.660  0.00  0.00    +0.000 C 
ATOM     37  C32 UNL     1      18.238  37.003  36.152  0.00  0.00    +0.000 C 
ATOM     38  O8  UNL     1      19.724  35.152  36.423  0.00  0.00    +0.000 OA
ENDROOT
BRANCH   4  39
ATOM     39  O1  UNL     1      21.857  30.840  36.903  0.00  0.00    +0.000 OA
ATOM     40  H5  UNL     1      21.165  30.358  36.344  0.00  0.00    +0.000 HD
ENDBRANCH   4  39
BRANCH  35  41
ATOM     41  O7  UNL     1      22.024  36.681  36.216  0.00  0.00    +0.000 OA
ATOM     42  H37 UNL     1      21.931  36.296  37.132  0.00  0.00    +0.000 HD
ENDBRANCH  35  41
TORSDOF 2
ENDMDL
MODEL 5
REMARK VINA RESULT:    -6.745      6.673     11.819
REMARK INTER + INTRA:          -7.139
REMARK INTER:                  -7.139
REMARK INTRA:                   0.000
REMARK UNBOUND:                 0.000
REMARK  Name = CNP0071486_1.pdb
REMARK  8 active torsions:
REMARK  status: ('A' for Active; 'I' for Inactive)
REMARK    1  A    between atoms: C1_1  and  C2_2
REMARK    2  A    between atoms: C4_4  and  O1_5
REMARK    3  A    between atoms: C11_12  and  C12_13
REMARK    4  A    between atoms: C11_12  and  C13_14
REMARK    5  A    between atoms: C17_18  and  C18_19
REMARK    6  A    between atoms: C22_26  and  C23_27
REMARK    7  A    between atoms: C30_36  and  O7_37
REMARK    8  A    between atoms: C31_38  and  C32_39
REMARK                            x       y       z     vdW  Elec       q    Type
REMARK                         _______ _______ _______ _____ _____    ______ ____
ROOT
ATOM      1  C1  UNL     1      31.256  41.491  35.021  0.00  0.00    +0.000 C 
ATOM      2  C2  UNL     1      31.337  40.023  34.699  0.00  0.00    +0.000 A 
ATOM      3  C3  UNL     1      31.386  39.621  33.352  0.00  0.00    +0.000 A 
ATOM      4  C4  UNL     1      31.464  38.269  33.014  0.00  0.00    +0.000 A 
ATOM      5  C5  UNL     1      31.485  37.299  34.023  0.00  0.00    +0.000 A 
ATOM      6  C6  UNL     1      31.429  37.674  35.368  0.00  0.00    +0.000 A 
ATOM      7  C7  UNL     1      31.388  39.044  35.723  0.00  0.00    +0.000 A 
ATOM      8  C8  UNL     1      31.342  39.446  37.189  0.00  0.00    +0.000 C 
ATOM      9  C9  UNL     1      31.765  38.293  38.125  0.00  0.00    +0.000 C 
ATOM     10  C10 UNL     1      31.891  38.713  39.640  0.00  0.00    +0.000 C 
ATOM     11  C11 UNL     1      30.692  38.869  40.658  0.00  0.00    +0.000 C 
ATOM     12  C12 UNL     1      29.519  39.713  40.106  0.00  0.00    +0.000 C 
ATOM     13  C13 UNL     1      31.238  39.698  41.855  0.00  0.00    +0.000 C 
ATOM     14  C14 UNL     1      30.350  37.501  41.285  0.00  0.00    +0.000 C 
ATOM     15  C15 UNL     1      29.211  36.772  41.396  0.00  0.00    +0.000 C 
ATOM     16  C16 UNL     1      27.862  36.953  40.734  0.00  0.00    +0.000 C 
ATOM     17  C17 UNL     1      27.370  35.637  40.043  0.00  0.00    +0.000 C 
ATOM     18  C18 UNL     1      26.103  35.983  39.228  0.00  0.00    +0.000 C 
ATOM     19  O2  UNL     1      26.948  34.787  41.118  0.00  0.00    +0.000 OA
ATOM     20  C19 UNL     1      26.883  33.391  41.075  0.00  0.00    +0.000 C 
ATOM     21  C20 UNL     1      26.078  32.780  41.944  0.00  0.00    +0.000 C 
ATOM     22  C21 UNL     1      25.970  31.324  41.955  0.00  0.00    +0.000 C 
ATOM     23  O3  UNL     1      25.327  30.747  42.868  0.00  0.00    +0.000 OA
ATOM     24  O4  UNL     1      26.588  30.571  40.958  0.00  0.00    +0.000 OA
ATOM     25  C22 UNL     1      27.241  31.150  39.818  0.00  0.00    +0.000 C 
ATOM     26  C23 UNL     1      26.286  31.033  38.624  0.00  0.00    +0.000 C 
ATOM     27  C24 UNL     1      28.536  30.342  39.598  0.00  0.00    +0.000 C 
ATOM     28  C25 UNL     1      29.500  31.109  40.422  0.00  0.00    +0.000 C 
ATOM     29  O5  UNL     1      30.605  30.658  40.827  0.00  0.00    +0.000 OA
ATOM     30  O6  UNL     1      29.031  32.370  40.746  0.00  0.00    +0.000 OA
ATOM     31  C26 UNL     1      27.767  32.610  40.130  0.00  0.00    +0.000 C 
ATOM     32  C27 UNL     1      28.000  33.445  38.845  0.00  0.00    +0.000 C 
ATOM     33  C28 UNL     1      28.465  34.887  39.151  0.00  0.00    +0.000 C 
ATOM     34  C29 UNL     1      28.844  35.547  37.786  0.00  0.00    +0.000 C 
ATOM     35  C30 UNL     1      29.564  36.914  37.890  0.00  0.00    +0.000 C 
ATOM     36  C31 UNL     1      31.116  36.914  37.723  0.00  0.00    +0.000 C 
ATOM     37  C32 UNL     1      31.786  35.788  38.536  0.00  0.00    +0.000 C 
ATOM     38  O8  UNL     1      31.414  36.669  36.346  0.00  0.00    +0.000 OA
ENDROOT
BRANCH   4  39
ATOM     39  O1  UNL     1      31.514  37.899  31.672  0.00  0.00    +0.000 OA
ATOM     40  H5  UNL     1      32.158  38.340  31.028  0.00  0.00    +0.000 HD
ENDBRANCH   4  39
BRANCH  35  41
ATOM     41  O7  UNL     1      28.966  37.800  36.974  0.00  0.00    +0.000 OA
ATOM     42  H37 UNL     1      28.134  37.358  36.645  0.00  0.00    +0.000 HD
ENDBRANCH  35  41
TORSDOF 2
ENDMDL
MODEL 6
REMARK VINA RESULT:    -6.742      3.235      8.483
REMARK INTER + INTRA:          -7.136
REMARK INTER:                  -7.136
REMARK INTRA:                   0.000
REMARK UNBOUND:                 0.000
REMARK  Name = CNP0071486_1.pdb
REMARK  8 active torsions:
REMARK  status: ('A' for Active; 'I' for Inactive)
REMARK    1  A    between atoms: C1_1  and  C2_2
REMARK    2  A    between atoms: C4_4  and  O1_5
REMARK    3  A    between atoms: C11_12  and  C12_13
REMARK    4  A    between atoms: C11_12  and  C13_14
REMARK    5  A    between atoms: C17_18  and  C18_19
REMARK    6  A    between atoms: C22_26  and  C23_27
REMARK    7  A    between atoms: C30_36  and  O7_37
REMARK    8  A    between atoms: C31_38  and  C32_39
REMARK                            x       y       z     vdW  Elec       q    Type
REMARK                         _______ _______ _______ _____ _____    ______ ____
ROOT
ATOM      1  C1  UNL     1      19.064  39.067  34.830  0.00  0.00    +0.000 C 
ATOM      2  C2  UNL     1      19.601  39.086  36.236  0.00  0.00    +0.000 A 
ATOM      3  C3  UNL     1      19.605  40.300  36.948  0.00  0.00    +0.000 A 
ATOM      4  C4  UNL     1      20.093  40.356  38.255  0.00  0.00    +0.000 A 
ATOM      5  C5  UNL     1      20.591  39.199  38.864  0.00  0.00    +0.000 A 
ATOM      6  C6  UNL     1      20.604  37.985  38.173  0.00  0.00    +0.000 A 
ATOM      7  C7  UNL     1      20.078  37.907  36.861  0.00  0.00    +0.000 A 
ATOM      8  C8  UNL     1      20.081  36.579  36.120  0.00  0.00    +0.000 C 
ATOM      9  C9  UNL     1      20.293  35.380  37.070  0.00  0.00    +0.000 C 
ATOM     10  C10 UNL     1      20.139  33.975  36.369  0.00  0.00    +0.000 C 
ATOM     11  C11 UNL     1      21.240  33.254  35.494  0.00  0.00    +0.000 C 
ATOM     12  C12 UNL     1      21.871  34.169  34.419  0.00  0.00    +0.000 C 
ATOM     13  C13 UNL     1      20.503  32.151  34.683  0.00  0.00    +0.000 C 
ATOM     14  C14 UNL     1      22.201  32.459  36.405  0.00  0.00    +0.000 C 
ATOM     15  C15 UNL     1      23.548  32.434  36.561  0.00  0.00    +0.000 C 
ATOM     16  C16 UNL     1      24.616  33.366  36.026  0.00  0.00    +0.000 C 
ATOM     17  C17 UNL     1      25.564  33.879  37.160  0.00  0.00    +0.000 C 
ATOM     18  C18 UNL     1      26.471  34.972  36.552  0.00  0.00    +0.000 C 
ATOM     19  O2  UNL     1      26.413  32.765  37.469  0.00  0.00    +0.000 OA
ATOM     20  C19 UNL     1      27.075  32.557  38.683  0.00  0.00    +0.000 C 
ATOM     21  C20 UNL     1      28.143  31.761  38.679  0.00  0.00    +0.000 C 
ATOM     22  C21 UNL     1      28.874  31.498  39.915  0.00  0.00    +0.000 C 
ATOM     23  O3  UNL     1      29.788  30.634  39.934  0.00  0.00    +0.000 OA
ATOM     24  O4  UNL     1      28.555  32.198  41.077  0.00  0.00    +0.000 OA
ATOM     25  C22 UNL     1      27.612  33.280  41.116  0.00  0.00    +0.000 C 
ATOM     26  C23 UNL     1      28.406  34.591  41.136  0.00  0.00    +0.000 C 
ATOM     27  C24 UNL     1      26.784  33.091  42.403  0.00  0.00    +0.000 C 
ATOM     28  C25 UNL     1      25.664  32.256  41.908  0.00  0.00    +0.000 C 
ATOM     29  O5  UNL     1      24.909  31.569  42.647  0.00  0.00    +0.000 OA
ATOM     30  O6  UNL     1      25.565  32.270  40.527  0.00  0.00    +0.000 OA
ATOM     31  C26 UNL     1      26.534  33.152  39.963  0.00  0.00    +0.000 C 
ATOM     32  C27 UNL     1      25.842  34.501  39.645  0.00  0.00    +0.000 C 
ATOM     33  C28 UNL     1      24.827  34.388  38.485  0.00  0.00    +0.000 C 
ATOM     34  C29 UNL     1      24.071  35.753  38.399  0.00  0.00    +0.000 C 
ATOM     35  C30 UNL     1      22.841  35.771  37.459  0.00  0.00    +0.000 C 
ATOM     36  C31 UNL     1      21.436  35.634  38.124  0.00  0.00    +0.000 C 
ATOM     37  C32 UNL     1      21.403  34.511  39.181  0.00  0.00    +0.000 C 
ATOM     38  O8  UNL     1      21.147  36.856  38.806  0.00  0.00    +0.000 OA
ENDROOT
BRANCH   4  39
ATOM     39  O1  UNL     1      20.083  41.571  38.938  0.00  0.00    +0.000 OA
ATOM     40  H5  UNL     1      19.477  42.330  38.654  0.00  0.00    +0.000 HD
ENDBRANCH   4  39
BRANCH  35  41
ATOM     41  O7  UNL     1      22.905  36.934  36.668  0.00  0.00    +0.000 OA
ATOM     42  H37 UNL     1      21.985  37.317  36.640  0.00  0.00    +0.000 HD
ENDBRANCH  35  41
TORSDOF 2
ENDMDL
MODEL 7
REMARK VINA RESULT:    -6.608      2.824      5.770
REMARK INTER + INTRA:          -6.994
REMARK INTER:                  -6.994
REMARK INTRA:                   0.000
REMARK UNBOUND:                 0.000
REMARK  Name = CNP0071486_1.pdb
REMARK  8 active torsions:
REMARK  status: ('A' for Active; 'I' for Inactive)
REMARK    1  A    between atoms: C1_1  and  C2_2
REMARK    2  A    between atoms: C4_4  and  O1_5
REMARK    3  A    between atoms: C11_12  and  C12_13
REMARK    4  A    between atoms: C11_12  and  C13_14
REMARK    5  A    between atoms: C17_18  and  C18_19
REMARK    6  A    between atoms: C22_26  and  C23_27
REMARK    7  A    between atoms: C30_36  and  O7_37
REMARK    8  A    between atoms: C31_38  and  C32_39
REMARK                            x       y       z     vdW  Elec       q    Type
REMARK                         _______ _______ _______ _____ _____    ______ ____
ROOT
ATOM      1  C1  UNL     1      26.157  30.722  43.345  0.00  0.00    +0.000 C 
ATOM      2  C2  UNL     1      26.619  31.921  42.561  0.00  0.00    +0.000 A 
ATOM      3  C3  UNL     1      27.625  32.742  43.102  0.00  0.00    +0.000 A 
ATOM      4  C4  UNL     1      28.082  33.862  42.403  0.00  0.00    +0.000 A 
ATOM      5  C5  UNL     1      27.530  34.178  41.157  0.00  0.00    +0.000 A 
ATOM      6  C6  UNL     1      26.523  33.382  40.605  0.00  0.00    +0.000 A 
ATOM      7  C7  UNL     1      26.080  32.223  41.286  0.00  0.00    +0.000 A 
ATOM      8  C8  UNL     1      24.995  31.352  40.673  0.00  0.00    +0.000 C 
ATOM      9  C9  UNL     1      24.804  31.630  39.165  0.00  0.00    +0.000 C 
ATOM     10  C10 UNL     1      23.807  30.636  38.454  0.00  0.00    +0.000 C 
ATOM     11  C11 UNL     1      22.229  30.725  38.493  0.00  0.00    +0.000 C 
ATOM     12  C12 UNL     1      21.657  30.913  39.918  0.00  0.00    +0.000 C 
ATOM     13  C13 UNL     1      21.700  29.335  38.041  0.00  0.00    +0.000 C 
ATOM     14  C14 UNL     1      21.727  31.684  37.393  0.00  0.00    +0.000 C 
ATOM     15  C15 UNL     1      20.923  32.777  37.388  0.00  0.00    +0.000 C 
ATOM     16  C16 UNL     1      20.382  33.602  38.537  0.00  0.00    +0.000 C 
ATOM     17  C17 UNL     1      20.665  35.129  38.343  0.00  0.00    +0.000 C 
ATOM     18  C18 UNL     1      20.267  35.848  39.653  0.00  0.00    +0.000 C 
ATOM     19  O2  UNL     1      19.734  35.556  37.340  0.00  0.00    +0.000 OA
ATOM     20  C19 UNL     1      19.892  36.664  36.501  0.00  0.00    +0.000 C 
ATOM     21  C20 UNL     1      18.796  37.191  35.955  0.00  0.00    +0.000 C 
ATOM     22  C21 UNL     1      18.894  38.343  35.065  0.00  0.00    +0.000 C 
ATOM     23  O3  UNL     1      17.879  38.743  34.439  0.00  0.00    +0.000 OA
ATOM     24  O4  UNL     1      20.114  38.997  34.901  0.00  0.00    +0.000 OA
ATOM     25  C22 UNL     1      21.290  38.682  35.662  0.00  0.00    +0.000 C 
ATOM     26  C23 UNL     1      21.433  39.743  36.760  0.00  0.00    +0.000 C 
ATOM     27  C24 UNL     1      22.473  38.715  34.674  0.00  0.00    +0.000 C 
ATOM     28  C25 UNL     1      22.507  37.307  34.214  0.00  0.00    +0.000 C 
ATOM     29  O5  UNL     1      23.083  36.916  33.163  0.00  0.00    +0.000 OA
ATOM     30  O6  UNL     1      21.790  36.463  35.045  0.00  0.00    +0.000 OA
ATOM     31  C26 UNL     1      21.272  37.180  36.164  0.00  0.00    +0.000 C 
ATOM     32  C27 UNL     1      22.212  36.946  37.373  0.00  0.00    +0.000 C 
ATOM     33  C28 UNL     1      22.157  35.493  37.895  0.00  0.00    +0.000 C 
ATOM     34  C29 UNL     1      23.279  35.347  38.973  0.00  0.00    +0.000 C 
ATOM     35  C30 UNL     1      23.554  33.900  39.450  0.00  0.00    +0.000 C 
ATOM     36  C31 UNL     1      24.785  33.169  38.829  0.00  0.00    +0.000 C 
ATOM     37  C32 UNL     1      24.853  33.349  37.299  0.00  0.00    +0.000 C 
ATOM     38  O8  UNL     1      25.971  33.756  39.371  0.00  0.00    +0.000 OA
ENDROOT
BRANCH   4  39
ATOM     39  O1  UNL     1      29.081  34.657  42.960  0.00  0.00    +0.000 OA
ATOM     40  H5  UNL     1      29.998  34.723  42.538  0.00  0.00    +0.000 HD
ENDBRANCH   4  39
BRANCH  35  41
ATOM     41  O7  UNL     1      23.638  33.907  40.856  0.00  0.00    +0.000 OA
ATOM     42  H37 UNL     1      24.378  33.286  41.105  0.00  0.00    +0.000 HD
ENDBRANCH  35  41
TORSDOF 2
ENDMDL
MODEL 8
REMARK VINA RESULT:    -6.552      2.592      5.615
REMARK INTER + INTRA:          -6.935
REMARK INTER:                  -6.935
REMARK INTRA:                   0.000
REMARK UNBOUND:                 0.000
REMARK  Name = CNP0071486_1.pdb
REMARK  8 active torsions:
REMARK  status: ('A' for Active; 'I' for Inactive)
REMARK    1  A    between atoms: C1_1  and  C2_2
REMARK    2  A    between atoms: C4_4  and  O1_5
REMARK    3  A    between atoms: C11_12  and  C12_13
REMARK    4  A    between atoms: C11_12  and  C13_14
REMARK    5  A    between atoms: C17_18  and  C18_19
REMARK    6  A    between atoms: C22_26  and  C23_27
REMARK    7  A    between atoms: C30_36  and  O7_37
REMARK    8  A    between atoms: C31_38  and  C32_39
REMARK                            x       y       z     vdW  Elec       q    Type
REMARK                         _______ _______ _______ _____ _____    ______ ____
ROOT
ATOM      1  C1  UNL     1      26.287  32.695  42.099  0.00  0.00    +0.000 C 
ATOM      2  C2  UNL     1      26.545  33.974  41.347  0.00  0.00    +0.000 A 
ATOM      3  C3  UNL     1      27.386  34.945  41.923  0.00  0.00    +0.000 A 
ATOM      4  C4  UNL     1      27.651  36.142  41.256  0.00  0.00    +0.000 A 
ATOM      5  C5  UNL     1      27.071  36.387  40.006  0.00  0.00    +0.000 A 
ATOM      6  C6  UNL     1      26.226  35.441  39.420  0.00  0.00    +0.000 A 
ATOM      7  C7  UNL     1      25.980  34.207  40.069  0.00  0.00    +0.000 A 
ATOM      8  C8  UNL     1      25.072  33.176  39.419  0.00  0.00    +0.000 C 
ATOM      9  C9  UNL     1      24.857  33.451  37.914  0.00  0.00    +0.000 C 
ATOM     10  C10 UNL     1      24.058  32.316  37.165  0.00  0.00    +0.000 C 
ATOM     11  C11 UNL     1      22.488  32.130  37.177  0.00  0.00    +0.000 C 
ATOM     12  C12 UNL     1      21.872  32.182  38.595  0.00  0.00    +0.000 C 
ATOM     13  C13 UNL     1      22.216  30.679  36.687  0.00  0.00    +0.000 C 
ATOM     14  C14 UNL     1      21.844  33.013  36.087  0.00  0.00    +0.000 C 
ATOM     15  C15 UNL     1      20.862  33.949  36.090  0.00  0.00    +0.000 C 
ATOM     16  C16 UNL     1      20.170  34.641  37.246  0.00  0.00    +0.000 C 
ATOM     17  C17 UNL     1      20.186  36.199  37.087  0.00  0.00    +0.000 C 
ATOM     18  C18 UNL     1      19.651  36.807  38.404  0.00  0.00    +0.000 C 
ATOM     19  O2  UNL     1      19.210  36.481  36.076  0.00  0.00    +0.000 OA
ATOM     20  C19 UNL     1      19.186  37.618  35.262  0.00  0.00    +0.000 C 
ATOM     21  C20 UNL     1      18.022  37.960  34.708  0.00  0.00    +0.000 C 
ATOM     22  C21 UNL     1      17.932  39.132  33.843  0.00  0.00    +0.000 C 
ATOM     23  O3  UNL     1      16.872  39.364  33.207  0.00  0.00    +0.000 OA
ATOM     24  O4  UNL     1      19.022  39.990  33.714  0.00  0.00    +0.000 OA
ATOM     25  C22 UNL     1      20.224  39.866  34.490  0.00  0.00    +0.000 C 
ATOM     26  C23 UNL     1      20.164  40.911  35.611  0.00  0.00    +0.000 C 
ATOM     27  C24 UNL     1      21.397  40.127  33.525  0.00  0.00    +0.000 C 
ATOM     28  C25 UNL     1      21.682  38.757  33.038  0.00  0.00    +0.000 C 
ATOM     29  O5  UNL     1      22.332  38.496  31.989  0.00  0.00    +0.000 OA
ATOM     30  O6  UNL     1      21.110  37.783  33.838  0.00  0.00    +0.000 OA
ATOM     31  C26 UNL     1      20.459  38.373  34.961  0.00  0.00    +0.000 C 
ATOM     32  C27 UNL     1      21.409  38.278  36.182  0.00  0.00    +0.000 C 
ATOM     33  C28 UNL     1      21.598  36.825  36.674  0.00  0.00    +0.000 C 
ATOM     34  C29 UNL     1      22.713  36.852  37.769  0.00  0.00    +0.000 C 
ATOM     35  C30 UNL     1      23.229  35.464  38.222  0.00  0.00    +0.000 C 
ATOM     36  C31 UNL     1      24.576  34.971  37.608  0.00  0.00    +0.000 C 
ATOM     37  C32 UNL     1      24.634  35.195  36.084  0.00  0.00    +0.000 C 
ATOM     38  O8  UNL     1      25.634  35.742  38.184  0.00  0.00    +0.000 OA
ENDROOT
BRANCH   4  39
ATOM     39  O1  UNL     1      28.489  37.085  41.847  0.00  0.00    +0.000 OA
ATOM     40  H5  UNL     1      29.471  36.895  41.999  0.00  0.00    +0.000 HD
ENDBRANCH   4  39
BRANCH  35  41
ATOM     41  O7  UNL     1      23.290  35.453  39.629  0.00  0.00    +0.000 OA
ATOM     42  H37 UNL     1      22.782  34.650  39.935  0.00  0.00    +0.000 HD
ENDBRANCH  35  41
TORSDOF 2
ENDMDL
MODEL 9
REMARK VINA RESULT:    -6.527      2.742      8.506
REMARK INTER + INTRA:          -6.908
REMARK INTER:                  -6.908
REMARK INTRA:                   0.000
REMARK UNBOUND:                 0.000
REMARK  Name = CNP0071486_1.pdb
REMARK  8 active torsions:
REMARK  status: ('A' for Active; 'I' for Inactive)
REMARK    1  A    between atoms: C1_1  and  C2_2
REMARK    2  A    between atoms: C4_4  and  O1_5
REMARK    3  A    between atoms: C11_12  and  C12_13
REMARK    4  A    between atoms: C11_12  and  C13_14
REMARK    5  A    between atoms: C17_18  and  C18_19
REMARK    6  A    between atoms: C22_26  and  C23_27
REMARK    7  A    between atoms: C30_36  and  O7_37
REMARK    8  A    between atoms: C31_38  and  C32_39
REMARK                            x       y       z     vdW  Elec       q    Type
REMARK                         _______ _______ _______ _____ _____    ______ ____
ROOT
ATOM      1  C1  UNL     1      16.938  39.108  33.376  0.00  0.00    +0.000 C 
ATOM      2  C2  UNL     1      18.151  38.339  32.926  0.00  0.00    +0.000 A 
ATOM      3  C3  UNL     1      18.259  37.966  31.574  0.00  0.00    +0.000 A 
ATOM      4  C4  UNL     1      19.371  37.254  31.119  0.00  0.00    +0.000 A 
ATOM      5  C5  UNL     1      20.385  36.899  32.015  0.00  0.00    +0.000 A 
ATOM      6  C6  UNL     1      20.295  37.251  33.364  0.00  0.00    +0.000 A 
ATOM      7  C7  UNL     1      19.191  38.005  33.829  0.00  0.00    +0.000 A 
ATOM      8  C8  UNL     1      19.106  38.399  35.296  0.00  0.00    +0.000 C 
ATOM      9  C9  UNL     1      20.465  38.268  36.017  0.00  0.00    +0.000 C 
ATOM     10  C10 UNL     1      20.462  38.821  37.493  0.00  0.00    +0.000 C 
ATOM     11  C11 UNL     1      19.911  38.059  38.764  0.00  0.00    +0.000 C 
ATOM     12  C12 UNL     1      18.500  37.458  38.560  0.00  0.00    +0.000 C 
ATOM     13  C13 UNL     1      19.719  39.134  39.871  0.00  0.00    +0.000 C 
ATOM     14  C14 UNL     1      21.003  37.132  39.338  0.00  0.00    +0.000 C 
ATOM     15  C15 UNL     1      21.055  35.811  39.643  0.00  0.00    +0.000 C 
ATOM     16  C16 UNL     1      20.090  34.690  39.317  0.00  0.00    +0.000 C 
ATOM     17  C17 UNL     1      20.814  33.472  38.650  0.00  0.00    +0.000 C 
ATOM     18  C18 UNL     1      19.724  32.487  38.171  0.00  0.00    +0.000 C 
ATOM     19  O2  UNL     1      21.515  32.824  39.720  0.00  0.00    +0.000 OA
ATOM     20  C19 UNL     1      22.645  32.013  39.579  0.00  0.00    +0.000 C 
ATOM     21  C20 UNL     1      22.910  31.143  40.554  0.00  0.00    +0.000 C 
ATOM     22  C21 UNL     1      24.080  30.273  40.471  0.00  0.00    +0.000 C 
ATOM     23  O3  UNL     1      24.407  29.563  41.455  0.00  0.00    +0.000 OA
ATOM     24  O4  UNL     1      24.840  30.235  39.303  0.00  0.00    +0.000 OA
ATOM     25  C22 UNL     1      24.472  30.921  38.096  0.00  0.00    +0.000 C 
ATOM     26  C23 UNL     1      23.859  29.889  37.142  0.00  0.00    +0.000 C 
ATOM     27  C24 UNL     1      25.769  31.530  37.527  0.00  0.00    +0.000 C 
ATOM     28  C25 UNL     1      25.772  32.863  38.173  0.00  0.00    +0.000 C 
ATOM     29  O5  UNL     1      26.790  33.598  38.281  0.00  0.00    +0.000 OA
ATOM     30  O6  UNL     1      24.535  33.200  38.695  0.00  0.00    +0.000 OA
ATOM     31  C26 UNL     1      23.573  32.188  38.399  0.00  0.00    +0.000 C 
ATOM     32  C27 UNL     1      22.750  32.642  37.167  0.00  0.00    +0.000 C 
ATOM     33  C28 UNL     1      21.834  33.848  37.477  0.00  0.00    +0.000 C 
ATOM     34  C29 UNL     1      21.216  34.317  36.120  0.00  0.00    +0.000 C 
ATOM     35  C30 UNL     1      20.456  35.665  36.170  0.00  0.00    +0.000 C 
ATOM     36  C31 UNL     1      21.216  36.929  35.660  0.00  0.00    +0.000 C 
ATOM     37  C32 UNL     1      22.656  36.999  36.207  0.00  0.00    +0.000 C 
ATOM     38  O8  UNL     1      21.315  36.842  34.236  0.00  0.00    +0.000 OA
ENDROOT
BRANCH   4  39
ATOM     39  O1  UNL     1      19.454  36.899  29.774  0.00  0.00    +0.000 OA
ATOM     40  H5  UNL     1      18.835  37.304  29.084  0.00  0.00    +0.000 HD
ENDBRANCH   4  39
BRANCH  35  41
ATOM     41  O7  UNL     1      19.235  35.509  35.487  0.00  0.00    +0.000 OA
ATOM     42  H37 UNL     1      19.274  34.629  35.019  0.00  0.00    +0.000 HD
ENDBRANCH  35  41
TORSDOF 2
ENDMDL
MODEL 10
REMARK VINA RESULT:    -6.437      4.379     10.431
REMARK INTER + INTRA:          -6.813
REMARK INTER:                  -6.813
REMARK INTRA:                   0.000
REMARK UNBOUND:                 0.000
REMARK  Name = CNP0071486_1.pdb
REMARK  8 active torsions:
REMARK  status: ('A' for Active; 'I' for Inactive)
REMARK    1  A    between atoms: C1_1  and  C2_2
REMARK    2  A    between atoms: C4_4  and  O1_5
REMARK    3  A    between atoms: C11_12  and  C12_13
REMARK    4  A    between atoms: C11_12  and  C13_14
REMARK    5  A    between atoms: C17_18  and  C18_19
REMARK    6  A    between atoms: C22_26  and  C23_27
REMARK    7  A    between atoms: C30_36  and  O7_37
REMARK    8  A    between atoms: C31_38  and  C32_39
REMARK                            x       y       z     vdW  Elec       q    Type
REMARK                         _______ _______ _______ _____ _____    ______ ____
ROOT
ATOM      1  C1  UNL     1      13.327  45.180  31.893  0.00  0.00    +0.000 C 
ATOM      2  C2  UNL     1      13.270  43.676  31.944  0.00  0.00    +0.000 A 
ATOM      3  C3  UNL     1      12.036  43.049  32.199  0.00  0.00    +0.000 A 
ATOM      4  C4  UNL     1      11.943  41.657  32.251  0.00  0.00    +0.000 A 
ATOM      5  C5  UNL     1      13.086  40.874  32.057  0.00  0.00    +0.000 A 
ATOM      6  C6  UNL     1      14.324  41.476  31.811  0.00  0.00    +0.000 A 
ATOM      7  C7  UNL     1      14.423  42.885  31.718  0.00  0.00    +0.000 A 
ATOM      8  C8  UNL     1      15.769  43.532  31.435  0.00  0.00    +0.000 C 
ATOM      9  C9  UNL     1      16.796  42.526  30.871  0.00  0.00    +0.000 C 
ATOM     10  C10 UNL     1      18.151  43.187  30.409  0.00  0.00    +0.000 C 
ATOM     11  C11 UNL     1      19.344  43.607  31.357  0.00  0.00    +0.000 C 
ATOM     12  C12 UNL     1      18.895  44.435  32.584  0.00  0.00    +0.000 C 
ATOM     13  C13 UNL     1      20.235  44.582  30.535  0.00  0.00    +0.000 C 
ATOM     14  C14 UNL     1      20.266  42.397  31.614  0.00  0.00    +0.000 C 
ATOM     15  C15 UNL     1      20.736  41.790  32.733  0.00  0.00    +0.000 C 
ATOM     16  C16 UNL     1      20.338  41.961  34.184  0.00  0.00    +0.000 C 
ATOM     17  C17 UNL     1      20.013  40.590  34.865  0.00  0.00    +0.000 C 
ATOM     18  C18 UNL     1      19.420  40.891  36.261  0.00  0.00    +0.000 C 
ATOM     19  O2  UNL     1      21.288  39.971  35.084  0.00  0.00    +0.000 OA
ATOM     20  C19 UNL     1      21.515  38.597  35.215  0.00  0.00    +0.000 C 
ATOM     21  C20 UNL     1      22.625  38.209  35.842  0.00  0.00    +0.000 C 
ATOM     22  C21 UNL     1      22.923  36.789  36.005  0.00  0.00    +0.000 C 
ATOM     23  O3  UNL     1      24.037  36.429  36.464  0.00  0.00    +0.000 OA
ATOM     24  O4  UNL     1      21.977  35.831  35.645  0.00  0.00    +0.000 OA
ATOM     25  C22 UNL     1      20.642  36.154  35.226  0.00  0.00    +0.000 C 
ATOM     26  C23 UNL     1      19.708  35.911  36.417  0.00  0.00    +0.000 C 
ATOM     27  C24 UNL     1      20.318  35.222  34.042  0.00  0.00    +0.000 C 
ATOM     28  C25 UNL     1      20.776  36.039  32.894  0.00  0.00    +0.000 C 
ATOM     29  O5  UNL     1      21.025  35.577  31.747  0.00  0.00    +0.000 OA
ATOM     30  O6  UNL     1      20.952  37.370  33.230  0.00  0.00    +0.000 OA
ATOM     31  C26 UNL     1      20.569  37.600  34.585  0.00  0.00    +0.000 C 
ATOM     32  C27 UNL     1      19.134  38.183  34.595  0.00  0.00    +0.000 C 
ATOM     33  C28 UNL     1      19.071  39.615  34.017  0.00  0.00    +0.000 C 
ATOM     34  C29 UNL     1      17.560  40.002  33.909  0.00  0.00    +0.000 C 
ATOM     35  C30 UNL     1      17.265  41.305  33.127  0.00  0.00    +0.000 C 
ATOM     36  C31 UNL     1      16.792  41.155  31.648  0.00  0.00    +0.000 C 
ATOM     37  C32 UNL     1      17.645  40.134  30.868  0.00  0.00    +0.000 C 
ATOM     38  O8  UNL     1      15.452  40.656  31.659  0.00  0.00    +0.000 OA
ENDROOT
BRANCH   4  39
ATOM     39  O1  UNL     1      10.709  41.062  32.503  0.00  0.00    +0.000 OA
ATOM     40  H5  UNL     1      10.336  40.345  31.894  0.00  0.00    +0.000 HD
ENDBRANCH   4  39
BRANCH  35  41
ATOM     41  O7  UNL     1      16.343  42.067  33.869  0.00  0.00    +0.000 OA
ATOM     42  H37 UNL     1      16.479  43.021  33.610  0.00  0.00    +0.000 HD
ENDBRANCH  35  41
TORSDOF 2
ENDMDL
