
MODEL 2
REMARK VINA RESULT:    -8.797      2.430      9.287
REMARK INTER + INTRA:         -12.818
REMARK INTER:                 -11.508
REMARK INTRA:                  -1.310
REMARK UNBOUND:                -1.450
REMARK  Name = CNP0606043_1.pdb
REMARK  5 active torsions:
REMARK  status: ('A' for Active; 'I' for Inactive)
REMARK    1  A    between atoms: C1_2  and  C11_15
REMARK    2  A    between atoms: N1_3  and  C2_4
REMARK    3  A    between atoms: C2_4  and  C3_5
REMARK    4  A    between atoms: C3_5  and  C4_6
REMARK    5  A    between atoms: C15_19  and  N4_20
REMARK                            x       y       z     vdW  Elec       q    Type
REMARK                         _______ _______ _______ _____ _____    ______ ____
ROOT
ATOM      1  C11 UNL     1      60.975  55.801  71.740  0.00  0.00    +0.000 C 
ATOM      2  C12 UNL     1      61.217  57.301  71.566  0.00  0.00    +0.000 C 
ATOM      3  C13 UNL     1      60.213  57.923  70.643  0.00  0.00    +0.000 A 
ATOM      4  C14 UNL     1      60.562  59.111  69.977  0.00  0.00    +0.000 A 
ATOM      5  C15 UNL     1      59.636  59.784  69.168  0.00  0.00    +0.000 A 
ATOM      6  C16 UNL     1      58.346  59.254  69.037  0.00  0.00    +0.000 A 
ATOM      7  C17 UNL     1      57.987  58.080  69.703  0.00  0.00    +0.000 A 
ATOM      8  C18 UNL     1      58.911  57.391  70.523  0.00  0.00    +0.000 A 
ATOM      9  N5  UNL     1      58.549  56.158  71.215  0.00  0.00    +0.000 N 
ATOM     10  C19 UNL     1      57.158  55.664  71.096  0.00  0.00    +0.000 C 
ATOM     11  C20 UNL     1      56.925  54.296  71.757  0.00  0.00    +0.000 C 
ATOM     12  C21 UNL     1      58.150  53.435  71.507  0.00  0.00    +0.000 C 
ATOM     13  C22 UNL     1      59.272  53.987  72.376  0.00  0.00    +0.000 C 
ATOM     14  C23 UNL     1      58.916  53.678  73.841  0.00  0.00    +0.000 C 
ATOM     15  N6  UNL     1      57.576  54.183  74.208  0.00  0.00    +0.000 N 
ATOM     16  C24 UNL     1      56.621  54.438  73.242  0.00  0.00    +0.000 A 
ATOM     17  C25 UNL     1      55.344  54.879  73.620  0.00  0.00    +0.000 A 
ATOM     18  C26 UNL     1      55.035  55.038  74.966  0.00  0.00    +0.000 A 
ATOM     19  C27 UNL     1      55.992  54.749  75.931  0.00  0.00    +0.000 A 
ATOM     20  C28 UNL     1      57.259  54.311  75.540  0.00  0.00    +0.000 A 
ATOM     21  O4  UNL     1      58.107  54.031  76.435  0.00  0.00    +0.000 OA
ATOM     22  C29 UNL     1      59.508  55.533  72.171  0.00  0.00    +0.000 C 
ENDROOT
BRANCH   1  24
ATOM     23  O1  UNL     1      61.925  55.696  73.944  0.00  0.00    +0.000 OA
ATOM     24  C1  UNL     1      61.964  55.274  72.756  0.00  0.00    +0.000 C 
ATOM     25  N1  UNL     1      62.986  54.348  72.358  0.00  0.00    +0.000 N 
ATOM     26  H1  UNL     1      63.009  54.009  71.370  0.00  0.00    +0.000 HD
BRANCH  25  27
ATOM     27  C2  UNL     1      63.986  53.878  73.315  0.00  0.00    +0.000 C 
BRANCH  27  28
ATOM     28  C3  UNL     1      63.594  52.518  73.899  0.00  0.00    +0.000 C 
BRANCH  28  29
ATOM     29  C4  UNL     1      63.100  52.679  75.303  0.00  0.00    +0.000 A 
ATOM     30  N2  UNL     1      63.886  52.457  76.392  0.00  0.00    +0.000 NA
ATOM     31  C5  UNL     1      63.074  52.779  77.415  0.00  0.00    +0.000 A 
ATOM     32  C6  UNL     1      63.365  52.752  78.778  0.00  0.00    +0.000 A 
ATOM     33  C7  UNL     1      62.352  53.153  79.670  0.00  0.00    +0.000 A 
ATOM     34  C8  UNL     1      61.090  53.568  79.185  0.00  0.00    +0.000 A 
ATOM     35  C9  UNL     1      60.832  53.586  77.800  0.00  0.00    +0.000 A 
ATOM     36  C10 UNL     1      61.857  53.180  76.947  0.00  0.00    +0.000 A 
ATOM     37  N3  UNL     1      61.857  53.128  75.610  0.00  0.00    +0.000 N 
ATOM     38  H10 UNL     1      61.084  53.383  74.955  0.00  0.00    +0.000 HD
ENDBRANCH  28  29
ENDBRANCH  27  28
ENDBRANCH  25  27
ENDBRANCH   1  24
BRANCH   5  39
ATOM     39  N4  UNL     1      59.993  61.011  68.503  0.00  0.00    +0.000 N 
ATOM     40  O2  UNL     1      59.897  62.105  69.096  0.00  0.00    +0.000 OA
ATOM     41  O3  UNL     1      60.387  61.003  67.185  0.00  0.00    +0.000 OA
ENDBRANCH   5  39
TORSDOF 5
ENDMDL
