
MODEL 3
REMARK VINA RESULT:    -8.288      2.855      8.844
REMARK INTER + INTRA:         -12.161
REMARK INTER:                 -10.251
REMARK INTRA:                  -1.910
REMARK UNBOUND:                -1.450
REMARK  Name = CNP0606043_1.pdb
REMARK  5 active torsions:
REMARK  status: ('A' for Active; 'I' for Inactive)
REMARK    1  A    between atoms: C1_2  and  C11_15
REMARK    2  A    between atoms: N1_3  and  C2_4
REMARK    3  A    between atoms: C2_4  and  C3_5
REMARK    4  A    between atoms: C3_5  and  C4_6
REMARK    5  A    between atoms: C15_19  and  N4_20
REMARK                            x       y       z     vdW  Elec       q    Type
REMARK                         _______ _______ _______ _____ _____    ______ ____
ROOT
ATOM      1  C11 UNL     1      58.191  54.259  70.742  0.00  0.00    +0.000 C 
ATOM      2  C12 UNL     1      58.364  53.705  69.328  0.00  0.00    +0.000 C 
ATOM      3  C13 UNL     1      58.531  54.798  68.317  0.00  0.00    +0.000 A 
ATOM      4  C14 UNL     1      58.193  54.532  66.979  0.00  0.00    +0.000 A 
ATOM      5  C15 UNL     1      58.407  55.487  65.975  0.00  0.00    +0.000 A 
ATOM      6  C16 UNL     1      58.973  56.719  66.329  0.00  0.00    +0.000 A 
ATOM      7  C17 UNL     1      59.322  56.989  67.653  0.00  0.00    +0.000 A 
ATOM      8  C18 UNL     1      59.113  56.034  68.675  0.00  0.00    +0.000 A 
ATOM      9  N5  UNL     1      59.465  56.310  70.065  0.00  0.00    +0.000 N 
ATOM     10  C19 UNL     1      60.115  57.602  70.385  0.00  0.00    +0.000 C 
ATOM     11  C20 UNL     1      60.322  57.838  71.889  0.00  0.00    +0.000 C 
ATOM     12  C21 UNL     1      59.107  57.300  72.625  0.00  0.00    +0.000 C 
ATOM     13  C22 UNL     1      59.180  55.780  72.560  0.00  0.00    +0.000 C 
ATOM     14  C23 UNL     1      60.356  55.335  73.447  0.00  0.00    +0.000 C 
ATOM     15  N6  UNL     1      61.620  56.007  73.076  0.00  0.00    +0.000 N 
ATOM     16  C24 UNL     1      61.615  57.202  72.382  0.00  0.00    +0.000 A 
ATOM     17  C25 UNL     1      62.827  57.839  72.077  0.00  0.00    +0.000 A 
ATOM     18  C26 UNL     1      64.029  57.279  72.493  0.00  0.00    +0.000 A 
ATOM     19  C27 UNL     1      64.021  56.093  73.219  0.00  0.00    +0.000 A 
ATOM     20  C28 UNL     1      62.807  55.470  73.515  0.00  0.00    +0.000 A 
ATOM     21  O4  UNL     1      62.822  54.406  74.196  0.00  0.00    +0.000 OA
ATOM     22  C29 UNL     1      59.348  55.233  71.090  0.00  0.00    +0.000 C 
ENDROOT
BRANCH   1  24
ATOM     23  O1  UNL     1      57.124  52.960  72.458  0.00  0.00    +0.000 OA
ATOM     24  C1  UNL     1      58.128  53.095  71.705  0.00  0.00    +0.000 C 
ATOM     25  N1  UNL     1      59.232  52.184  71.813  0.00  0.00    +0.000 N 
ATOM     26  H1  UNL     1      60.058  52.310  71.188  0.00  0.00    +0.000 HD
BRANCH  25  27
ATOM     27  C2  UNL     1      59.209  51.090  72.784  0.00  0.00    +0.000 C 
BRANCH  27  28
ATOM     28  C3  UNL     1      60.499  51.057  73.607  0.00  0.00    +0.000 C 
BRANCH  28  29
ATOM     29  C4  UNL     1      60.336  51.858  74.861  0.00  0.00    +0.000 A 
ATOM     30  N2  UNL     1      59.149  52.407  75.238  0.00  0.00    +0.000 NA
ATOM     31  C5  UNL     1      59.442  52.964  76.426  0.00  0.00    +0.000 A 
ATOM     32  C6  UNL     1      58.586  53.658  77.279  0.00  0.00    +0.000 A 
ATOM     33  C7  UNL     1      59.120  54.139  78.490  0.00  0.00    +0.000 A 
ATOM     34  C8  UNL     1      60.479  53.916  78.815  0.00  0.00    +0.000 A 
ATOM     35  C9  UNL     1      61.315  53.208  77.930  0.00  0.00    +0.000 A 
ATOM     36  C10 UNL     1      60.752  52.748  76.740  0.00  0.00    +0.000 A 
ATOM     37  N3  UNL     1      61.333  52.044  75.761  0.00  0.00    +0.000 N 
ATOM     38  H10 UNL     1      62.321  51.708  75.709  0.00  0.00    +0.000 HD
ENDBRANCH  28  29
ENDBRANCH  27  28
ENDBRANCH  25  27
ENDBRANCH   1  24
BRANCH   5  39
ATOM     39  N4  UNL     1      58.076  55.201  64.603  0.00  0.00    +0.000 N 
ATOM     40  O2  UNL     1      58.076  56.109  63.747  0.00  0.00    +0.000 OA
ATOM     41  O3  UNL     1      57.694  53.934  64.226  0.00  0.00    +0.000 OA
ENDBRANCH   5  39
TORSDOF 5
ENDMDL
