MODEL 1
REMARK VINA RESULT:    -9.204      0.000      0.000
REMARK INTER + INTRA:         -13.344
REMARK INTER:                 -11.894
REMARK INTRA:                  -1.450
REMARK UNBOUND:                -1.450
REMARK  Name = CNP0606043_1.pdb
REMARK  5 active torsions:
REMARK  status: ('A' for Active; 'I' for Inactive)
REMARK    1  A    between atoms: C1_2  and  C11_15
REMARK    2  A    between atoms: N1_3  and  C2_4
REMARK    3  A    between atoms: C2_4  and  C3_5
REMARK    4  A    between atoms: C3_5  and  C4_6
REMARK    5  A    between atoms: C15_19  and  N4_20
REMARK                            x       y       z     vdW  Elec       q    Type
REMARK                         _______ _______ _______ _____ _____    ______ ____
ROOT
ATOM      1  C11 UNL     1      59.499  53.229  75.301  0.00  0.00    +0.000 C 
ATOM      2  C12 UNL     1      59.174  53.673  76.728  0.00  0.00    +0.000 C 
ATOM      3  C13 UNL     1      60.307  53.395  77.669  0.00  0.00    +0.000 A 
ATOM      4  C14 UNL     1      60.020  53.252  79.039  0.00  0.00    +0.000 A 
ATOM      5  C15 UNL     1      61.047  53.075  79.977  0.00  0.00    +0.000 A 
ATOM      6  C16 UNL     1      62.373  53.050  79.526  0.00  0.00    +0.000 A 
ATOM      7  C17 UNL     1      62.668  53.203  78.170  0.00  0.00    +0.000 A 
ATOM      8  C18 UNL     1      61.643  53.383  77.213  0.00  0.00    +0.000 A 
ATOM      9  N5  UNL     1      61.939  53.532  75.791  0.00  0.00    +0.000 N 
ATOM     10  C19 UNL     1      63.358  53.559  75.365  0.00  0.00    +0.000 C 
ATOM     11  C20 UNL     1      63.549  53.591  73.841  0.00  0.00    +0.000 C 
ATOM     12  C21 UNL     1      62.496  52.695  73.213  0.00  0.00    +0.000 C 
ATOM     13  C22 UNL     1      61.158  53.409  73.350  0.00  0.00    +0.000 C 
ATOM     14  C23 UNL     1      61.188  54.630  72.412  0.00  0.00    +0.000 C 
ATOM     15  N6  UNL     1      62.356  55.500  72.667  0.00  0.00    +0.000 N 
ATOM     16  C24 UNL     1      63.484  55.013  73.300  0.00  0.00    +0.000 A 
ATOM     17  C25 UNL     1      64.594  55.849  73.493  0.00  0.00    +0.000 A 
ATOM     18  C26 UNL     1      64.565  57.159  73.030  0.00  0.00    +0.000 A 
ATOM     19  C27 UNL     1      63.437  57.630  72.366  0.00  0.00    +0.000 A 
ATOM     20  C28 UNL     1      62.340  56.786  72.181  0.00  0.00    +0.000 A 
ATOM     21  O4  UNL     1      61.335  57.228  71.555  0.00  0.00    +0.000 OA
ATOM     22  C29 UNL     1      60.842  53.848  74.832  0.00  0.00    +0.000 C 
ENDROOT
BRANCH   1  24
ATOM     23  O1  UNL     1      57.703  52.746  73.782  0.00  0.00    +0.000 OA
ATOM     24  C1  UNL     1      58.350  53.632  74.404  0.00  0.00    +0.000 C 
ATOM     25  N1  UNL     1      58.037  55.019  74.208  0.00  0.00    +0.000 N 
ATOM     26  H1  UNL     1      58.584  55.742  74.725  0.00  0.00    +0.000 HD
BRANCH  25  27
ATOM     27  C2  UNL     1      56.969  55.425  73.296  0.00  0.00    +0.000 C 
BRANCH  27  28
ATOM     28  C3  UNL     1      57.209  56.838  72.760  0.00  0.00    +0.000 C 
BRANCH  28  29
ATOM     29  C4  UNL     1      57.625  56.785  71.323  0.00  0.00    +0.000 A 
ATOM     30  N2  UNL     1      57.212  55.808  70.470  0.00  0.00    +0.000 NA
ATOM     31  C5  UNL     1      57.758  56.184  69.300  0.00  0.00    +0.000 A 
ATOM     32  C6  UNL     1      57.650  55.550  68.063  0.00  0.00    +0.000 A 
ATOM     33  C7  UNL     1      58.301  56.145  66.965  0.00  0.00    +0.000 A 
ATOM     34  C8  UNL     1      59.033  57.344  67.128  0.00  0.00    +0.000 A 
ATOM     35  C9  UNL     1      59.119  57.960  68.392  0.00  0.00    +0.000 A 
ATOM     36  C10 UNL     1      58.463  57.341  69.456  0.00  0.00    +0.000 A 
ATOM     37  N3  UNL     1      58.386  57.740  70.731  0.00  0.00    +0.000 N 
ATOM     38  H10 UNL     1      58.805  58.592  71.167  0.00  0.00    +0.000 HD
ENDBRANCH  28  29
ENDBRANCH  27  28
ENDBRANCH  25  27
ENDBRANCH   1  24
BRANCH   5  39
ATOM     39  N4  UNL     1      60.749  52.948  81.380  0.00  0.00    +0.000 N 
ATOM     40  O2  UNL     1      60.383  51.854  81.855  0.00  0.00    +0.000 OA
ATOM     41  O3  UNL     1      60.803  54.046  82.208  0.00  0.00    +0.000 OA
ENDBRANCH   5  39
TORSDOF 5
ENDMDL
MODEL 2
REMARK VINA RESULT:    -8.797      2.430      9.287
REMARK INTER + INTRA:         -12.818
REMARK INTER:                 -11.508
REMARK INTRA:                  -1.310
REMARK UNBOUND:                -1.450
REMARK  Name = CNP0606043_1.pdb
REMARK  5 active torsions:
REMARK  status: ('A' for Active; 'I' for Inactive)
REMARK    1  A    between atoms: C1_2  and  C11_15
REMARK    2  A    between atoms: N1_3  and  C2_4
REMARK    3  A    between atoms: C2_4  and  C3_5
REMARK    4  A    between atoms: C3_5  and  C4_6
REMARK    5  A    between atoms: C15_19  and  N4_20
REMARK                            x       y       z     vdW  Elec       q    Type
REMARK                         _______ _______ _______ _____ _____    ______ ____
ROOT
ATOM      1  C11 UNL     1      60.975  55.801  71.740  0.00  0.00    +0.000 C 
ATOM      2  C12 UNL     1      61.217  57.301  71.566  0.00  0.00    +0.000 C 
ATOM      3  C13 UNL     1      60.213  57.923  70.643  0.00  0.00    +0.000 A 
ATOM      4  C14 UNL     1      60.562  59.111  69.977  0.00  0.00    +0.000 A 
ATOM      5  C15 UNL     1      59.636  59.784  69.168  0.00  0.00    +0.000 A 
ATOM      6  C16 UNL     1      58.346  59.254  69.037  0.00  0.00    +0.000 A 
ATOM      7  C17 UNL     1      57.987  58.080  69.703  0.00  0.00    +0.000 A 
ATOM      8  C18 UNL     1      58.911  57.391  70.523  0.00  0.00    +0.000 A 
ATOM      9  N5  UNL     1      58.549  56.158  71.215  0.00  0.00    +0.000 N 
ATOM     10  C19 UNL     1      57.158  55.664  71.096  0.00  0.00    +0.000 C 
ATOM     11  C20 UNL     1      56.925  54.296  71.757  0.00  0.00    +0.000 C 
ATOM     12  C21 UNL     1      58.150  53.435  71.507  0.00  0.00    +0.000 C 
ATOM     13  C22 UNL     1      59.272  53.987  72.376  0.00  0.00    +0.000 C 
ATOM     14  C23 UNL     1      58.916  53.678  73.841  0.00  0.00    +0.000 C 
ATOM     15  N6  UNL     1      57.576  54.183  74.208  0.00  0.00    +0.000 N 
ATOM     16  C24 UNL     1      56.621  54.438  73.242  0.00  0.00    +0.000 A 
ATOM     17  C25 UNL     1      55.344  54.879  73.620  0.00  0.00    +0.000 A 
ATOM     18  C26 UNL     1      55.035  55.038  74.966  0.00  0.00    +0.000 A 
ATOM     19  C27 UNL     1      55.992  54.749  75.931  0.00  0.00    +0.000 A 
ATOM     20  C28 UNL     1      57.259  54.311  75.540  0.00  0.00    +0.000 A 
ATOM     21  O4  UNL     1      58.107  54.031  76.435  0.00  0.00    +0.000 OA
ATOM     22  C29 UNL     1      59.508  55.533  72.171  0.00  0.00    +0.000 C 
ENDROOT
BRANCH   1  24
ATOM     23  O1  UNL     1      61.925  55.696  73.944  0.00  0.00    +0.000 OA
ATOM     24  C1  UNL     1      61.964  55.274  72.756  0.00  0.00    +0.000 C 
ATOM     25  N1  UNL     1      62.986  54.348  72.358  0.00  0.00    +0.000 N 
ATOM     26  H1  UNL     1      63.009  54.009  71.370  0.00  0.00    +0.000 HD
BRANCH  25  27
ATOM     27  C2  UNL     1      63.986  53.878  73.315  0.00  0.00    +0.000 C 
BRANCH  27  28
ATOM     28  C3  UNL     1      63.594  52.518  73.899  0.00  0.00    +0.000 C 
BRANCH  28  29
ATOM     29  C4  UNL     1      63.100  52.679  75.303  0.00  0.00    +0.000 A 
ATOM     30  N2  UNL     1      63.886  52.457  76.392  0.00  0.00    +0.000 NA
ATOM     31  C5  UNL     1      63.074  52.779  77.415  0.00  0.00    +0.000 A 
ATOM     32  C6  UNL     1      63.365  52.752  78.778  0.00  0.00    +0.000 A 
ATOM     33  C7  UNL     1      62.352  53.153  79.670  0.00  0.00    +0.000 A 
ATOM     34  C8  UNL     1      61.090  53.568  79.185  0.00  0.00    +0.000 A 
ATOM     35  C9  UNL     1      60.832  53.586  77.800  0.00  0.00    +0.000 A 
ATOM     36  C10 UNL     1      61.857  53.180  76.947  0.00  0.00    +0.000 A 
ATOM     37  N3  UNL     1      61.857  53.128  75.610  0.00  0.00    +0.000 N 
ATOM     38  H10 UNL     1      61.084  53.383  74.955  0.00  0.00    +0.000 HD
ENDBRANCH  28  29
ENDBRANCH  27  28
ENDBRANCH  25  27
ENDBRANCH   1  24
BRANCH   5  39
ATOM     39  N4  UNL     1      59.993  61.011  68.503  0.00  0.00    +0.000 N 
ATOM     40  O2  UNL     1      59.897  62.105  69.096  0.00  0.00    +0.000 OA
ATOM     41  O3  UNL     1      60.387  61.003  67.185  0.00  0.00    +0.000 OA
ENDBRANCH   5  39
TORSDOF 5
ENDMDL
MODEL 3
REMARK VINA RESULT:    -8.288      2.855      8.844
REMARK INTER + INTRA:         -12.161
REMARK INTER:                 -10.251
REMARK INTRA:                  -1.910
REMARK UNBOUND:                -1.450
REMARK  Name = CNP0606043_1.pdb
REMARK  5 active torsions:
REMARK  status: ('A' for Active; 'I' for Inactive)
REMARK    1  A    between atoms: C1_2  and  C11_15
REMARK    2  A    between atoms: N1_3  and  C2_4
REMARK    3  A    between atoms: C2_4  and  C3_5
REMARK    4  A    between atoms: C3_5  and  C4_6
REMARK    5  A    between atoms: C15_19  and  N4_20
REMARK                            x       y       z     vdW  Elec       q    Type
REMARK                         _______ _______ _______ _____ _____    ______ ____
ROOT
ATOM      1  C11 UNL     1      58.191  54.259  70.742  0.00  0.00    +0.000 C 
ATOM      2  C12 UNL     1      58.364  53.705  69.328  0.00  0.00    +0.000 C 
ATOM      3  C13 UNL     1      58.531  54.798  68.317  0.00  0.00    +0.000 A 
ATOM      4  C14 UNL     1      58.193  54.532  66.979  0.00  0.00    +0.000 A 
ATOM      5  C15 UNL     1      58.407  55.487  65.975  0.00  0.00    +0.000 A 
ATOM      6  C16 UNL     1      58.973  56.719  66.329  0.00  0.00    +0.000 A 
ATOM      7  C17 UNL     1      59.322  56.989  67.653  0.00  0.00    +0.000 A 
ATOM      8  C18 UNL     1      59.113  56.034  68.675  0.00  0.00    +0.000 A 
ATOM      9  N5  UNL     1      59.465  56.310  70.065  0.00  0.00    +0.000 N 
ATOM     10  C19 UNL     1      60.115  57.602  70.385  0.00  0.00    +0.000 C 
ATOM     11  C20 UNL     1      60.322  57.838  71.889  0.00  0.00    +0.000 C 
ATOM     12  C21 UNL     1      59.107  57.300  72.625  0.00  0.00    +0.000 C 
ATOM     13  C22 UNL     1      59.180  55.780  72.560  0.00  0.00    +0.000 C 
ATOM     14  C23 UNL     1      60.356  55.335  73.447  0.00  0.00    +0.000 C 
ATOM     15  N6  UNL     1      61.620  56.007  73.076  0.00  0.00    +0.000 N 
ATOM     16  C24 UNL     1      61.615  57.202  72.382  0.00  0.00    +0.000 A 
ATOM     17  C25 UNL     1      62.827  57.839  72.077  0.00  0.00    +0.000 A 
ATOM     18  C26 UNL     1      64.029  57.279  72.493  0.00  0.00    +0.000 A 
ATOM     19  C27 UNL     1      64.021  56.093  73.219  0.00  0.00    +0.000 A 
ATOM     20  C28 UNL     1      62.807  55.470  73.515  0.00  0.00    +0.000 A 
ATOM     21  O4  UNL     1      62.822  54.406  74.196  0.00  0.00    +0.000 OA
ATOM     22  C29 UNL     1      59.348  55.233  71.090  0.00  0.00    +0.000 C 
ENDROOT
BRANCH   1  24
ATOM     23  O1  UNL     1      57.124  52.960  72.458  0.00  0.00    +0.000 OA
ATOM     24  C1  UNL     1      58.128  53.095  71.705  0.00  0.00    +0.000 C 
ATOM     25  N1  UNL     1      59.232  52.184  71.813  0.00  0.00    +0.000 N 
ATOM     26  H1  UNL     1      60.058  52.310  71.188  0.00  0.00    +0.000 HD
BRANCH  25  27
ATOM     27  C2  UNL     1      59.209  51.090  72.784  0.00  0.00    +0.000 C 
BRANCH  27  28
ATOM     28  C3  UNL     1      60.499  51.057  73.607  0.00  0.00    +0.000 C 
BRANCH  28  29
ATOM     29  C4  UNL     1      60.336  51.858  74.861  0.00  0.00    +0.000 A 
ATOM     30  N2  UNL     1      59.149  52.407  75.238  0.00  0.00    +0.000 NA
ATOM     31  C5  UNL     1      59.442  52.964  76.426  0.00  0.00    +0.000 A 
ATOM     32  C6  UNL     1      58.586  53.658  77.279  0.00  0.00    +0.000 A 
ATOM     33  C7  UNL     1      59.120  54.139  78.490  0.00  0.00    +0.000 A 
ATOM     34  C8  UNL     1      60.479  53.916  78.815  0.00  0.00    +0.000 A 
ATOM     35  C9  UNL     1      61.315  53.208  77.930  0.00  0.00    +0.000 A 
ATOM     36  C10 UNL     1      60.752  52.748  76.740  0.00  0.00    +0.000 A 
ATOM     37  N3  UNL     1      61.333  52.044  75.761  0.00  0.00    +0.000 N 
ATOM     38  H10 UNL     1      62.321  51.708  75.709  0.00  0.00    +0.000 HD
ENDBRANCH  28  29
ENDBRANCH  27  28
ENDBRANCH  25  27
ENDBRANCH   1  24
BRANCH   5  39
ATOM     39  N4  UNL     1      58.076  55.201  64.603  0.00  0.00    +0.000 N 
ATOM     40  O2  UNL     1      58.076  56.109  63.747  0.00  0.00    +0.000 OA
ATOM     41  O3  UNL     1      57.694  53.934  64.226  0.00  0.00    +0.000 OA
ENDBRANCH   5  39
TORSDOF 5
ENDMDL
MODEL 4
REMARK VINA RESULT:    -8.049      3.144      9.073
REMARK INTER + INTRA:         -11.852
REMARK INTER:                 -10.356
REMARK INTRA:                  -1.496
REMARK UNBOUND:                -1.450
REMARK  Name = CNP0606043_1.pdb
REMARK  5 active torsions:
REMARK  status: ('A' for Active; 'I' for Inactive)
REMARK    1  A    between atoms: C1_2  and  C11_15
REMARK    2  A    between atoms: N1_3  and  C2_4
REMARK    3  A    between atoms: C2_4  and  C3_5
REMARK    4  A    between atoms: C3_5  and  C4_6
REMARK    5  A    between atoms: C15_19  and  N4_20
REMARK                            x       y       z     vdW  Elec       q    Type
REMARK                         _______ _______ _______ _____ _____    ______ ____
ROOT
ATOM      1  C11 UNL     1      57.289  54.348  69.976  0.00  0.00    +0.000 C 
ATOM      2  C12 UNL     1      57.574  53.488  68.744  0.00  0.00    +0.000 C 
ATOM      3  C13 UNL     1      57.912  54.324  67.548  0.00  0.00    +0.000 A 
ATOM      4  C14 UNL     1      57.700  53.780  66.269  0.00  0.00    +0.000 A 
ATOM      5  C15 UNL     1      58.075  54.481  65.114  0.00  0.00    +0.000 A 
ATOM      6  C16 UNL     1      58.676  55.738  65.255  0.00  0.00    +0.000 A 
ATOM      7  C17 UNL     1      58.902  56.281  66.521  0.00  0.00    +0.000 A 
ATOM      8  C18 UNL     1      58.529  55.586  67.695  0.00  0.00    +0.000 A 
ATOM      9  N5  UNL     1      58.750  56.150  69.023  0.00  0.00    +0.000 N 
ATOM     10  C19 UNL     1      59.442  57.455  69.129  0.00  0.00    +0.000 C 
ATOM     11  C20 UNL     1      59.506  58.011  70.560  0.00  0.00    +0.000 C 
ATOM     12  C21 UNL     1      58.190  57.694  71.250  0.00  0.00    +0.000 C 
ATOM     13  C22 UNL     1      58.175  56.197  71.524  0.00  0.00    +0.000 C 
ATOM     14  C23 UNL     1      59.223  55.916  72.616  0.00  0.00    +0.000 C 
ATOM     15  N6  UNL     1      60.557  56.441  72.256  0.00  0.00    +0.000 N 
ATOM     16  C24 UNL     1      60.699  57.452  71.324  0.00  0.00    +0.000 A 
ATOM     17  C25 UNL     1      61.973  57.960  71.031  0.00  0.00    +0.000 A 
ATOM     18  C26 UNL     1      63.088  57.462  71.694  0.00  0.00    +0.000 A 
ATOM     19  C27 UNL     1      62.932  56.468  72.653  0.00  0.00    +0.000 A 
ATOM     20  C28 UNL     1      61.657  55.971  72.935  0.00  0.00    +0.000 A 
ATOM     21  O4  UNL     1      61.535  55.085  73.827  0.00  0.00    +0.000 OA
ATOM     22  C29 UNL     1      58.462  55.331  70.236  0.00  0.00    +0.000 C 
ENDROOT
BRANCH   1  24
ATOM     23  O1  UNL     1      57.984  52.679  71.557  0.00  0.00    +0.000 OA
ATOM     24  C1  UNL     1      57.054  53.430  71.155  0.00  0.00    +0.000 C 
ATOM     25  N1  UNL     1      55.761  53.362  71.773  0.00  0.00    +0.000 N 
ATOM     26  H1  UNL     1      54.998  53.986  71.427  0.00  0.00    +0.000 HD
BRANCH  25  27
ATOM     27  C2  UNL     1      55.503  52.434  72.873  0.00  0.00    +0.000 C 
BRANCH  27  28
ATOM     28  C3  UNL     1      55.060  53.181  74.132  0.00  0.00    +0.000 C 
BRANCH  28  29
ATOM     29  C4  UNL     1      56.225  53.394  75.047  0.00  0.00    +0.000 A 
ATOM     30  N2  UNL     1      56.094  53.884  76.310  0.00  0.00    +0.000 NA
ATOM     31  C5  UNL     1      57.354  53.845  76.777  0.00  0.00    +0.000 A 
ATOM     32  C6  UNL     1      57.809  54.222  78.040  0.00  0.00    +0.000 A 
ATOM     33  C7  UNL     1      59.184  54.074  78.309  0.00  0.00    +0.000 A 
ATOM     34  C8  UNL     1      60.058  53.558  77.324  0.00  0.00    +0.000 A 
ATOM     35  C9  UNL     1      59.562  53.184  76.059  0.00  0.00    +0.000 A 
ATOM     36  C10 UNL     1      58.197  53.347  75.828  0.00  0.00    +0.000 A 
ATOM     37  N3  UNL     1      57.498  53.050  74.725  0.00  0.00    +0.000 N 
ATOM     38  H10 UNL     1      57.849  52.640  73.830  0.00  0.00    +0.000 HD
ENDBRANCH  28  29
ENDBRANCH  27  28
ENDBRANCH  25  27
ENDBRANCH   1  24
BRANCH   5  39
ATOM     39  N4  UNL     1      57.872  53.910  63.807  0.00  0.00    +0.000 N 
ATOM     40  O2  UNL     1      58.156  54.558  62.780  0.00  0.00    +0.000 OA
ATOM     41  O3  UNL     1      57.303  52.664  63.669  0.00  0.00    +0.000 OA
ENDBRANCH   5  39
TORSDOF 5
ENDMDL
MODEL 5
REMARK VINA RESULT:    -8.014      3.938      8.254
REMARK INTER + INTRA:         -11.807
REMARK INTER:                  -9.717
REMARK INTRA:                  -2.090
REMARK UNBOUND:                -1.450
REMARK  Name = CNP0606043_1.pdb
REMARK  5 active torsions:
REMARK  status: ('A' for Active; 'I' for Inactive)
REMARK    1  A    between atoms: C1_2  and  C11_15
REMARK    2  A    between atoms: N1_3  and  C2_4
REMARK    3  A    between atoms: C2_4  and  C3_5
REMARK    4  A    between atoms: C3_5  and  C4_6
REMARK    5  A    between atoms: C15_19  and  N4_20
REMARK                            x       y       z     vdW  Elec       q    Type
REMARK                         _______ _______ _______ _____ _____    ______ ____
ROOT
ATOM      1  C11 UNL     1      58.185  54.389  70.595  0.00  0.00    +0.000 C 
ATOM      2  C12 UNL     1      58.365  53.797  69.196  0.00  0.00    +0.000 C 
ATOM      3  C13 UNL     1      58.495  54.863  68.152  0.00  0.00    +0.000 A 
ATOM      4  C14 UNL     1      58.156  54.546  66.825  0.00  0.00    +0.000 A 
ATOM      5  C15 UNL     1      58.336  55.476  65.791  0.00  0.00    +0.000 A 
ATOM      6  C16 UNL     1      58.870  56.733  66.103  0.00  0.00    +0.000 A 
ATOM      7  C17 UNL     1      59.220  57.053  67.416  0.00  0.00    +0.000 A 
ATOM      8  C18 UNL     1      59.044  56.125  68.468  0.00  0.00    +0.000 A 
ATOM      9  N5  UNL     1      59.396  56.453  69.846  0.00  0.00    +0.000 N 
ATOM     10  C19 UNL     1      60.012  57.772  70.122  0.00  0.00    +0.000 C 
ATOM     11  C20 UNL     1      60.222  58.060  71.617  0.00  0.00    +0.000 C 
ATOM     12  C21 UNL     1      59.028  57.511  72.377  0.00  0.00    +0.000 C 
ATOM     13  C22 UNL     1      59.142  55.992  72.358  0.00  0.00    +0.000 C 
ATOM     14  C23 UNL     1      60.336  55.608  73.250  0.00  0.00    +0.000 C 
ATOM     15  N6  UNL     1      61.578  56.303  72.850  0.00  0.00    +0.000 N 
ATOM     16  C24 UNL     1      61.536  57.475  72.119  0.00  0.00    +0.000 A 
ATOM     17  C25 UNL     1      62.728  58.136  71.787  0.00  0.00    +0.000 A 
ATOM     18  C26 UNL     1      63.947  57.622  72.211  0.00  0.00    +0.000 A 
ATOM     19  C27 UNL     1      63.977  56.460  72.973  0.00  0.00    +0.000 A 
ATOM     20  C28 UNL     1      62.783  55.813  73.297  0.00  0.00    +0.000 A 
ATOM     21  O4  UNL     1      62.832  54.771  74.010  0.00  0.00    +0.000 OA
ATOM     22  C29 UNL     1      59.317  55.405  70.904  0.00  0.00    +0.000 C 
ENDROOT
BRANCH   1  24
ATOM     23  O1  UNL     1      59.156  52.485  71.691  0.00  0.00    +0.000 OA
ATOM     24  C1  UNL     1      58.161  53.254  71.593  0.00  0.00    +0.000 C 
ATOM     25  N1  UNL     1      56.986  53.009  72.381  0.00  0.00    +0.000 N 
ATOM     26  H1  UNL     1      56.168  53.650  72.288  0.00  0.00    +0.000 HD
BRANCH  25  27
ATOM     27  C2  UNL     1      56.927  51.878  73.306  0.00  0.00    +0.000 C 
BRANCH  27  28
ATOM     28  C3  UNL     1      56.137  50.713  72.703  0.00  0.00    +0.000 C 
BRANCH  28  29
ATOM     29  C4  UNL     1      56.017  50.880  71.220  0.00  0.00    +0.000 A 
ATOM     30  N2  UNL     1      55.061  51.654  70.639  0.00  0.00    +0.000 NA
ATOM     31  C5  UNL     1      55.363  51.569  69.331  0.00  0.00    +0.000 A 
ATOM     32  C6  UNL     1      54.713  52.183  68.262  0.00  0.00    +0.000 A 
ATOM     33  C7  UNL     1      55.226  51.959  66.970  0.00  0.00    +0.000 A 
ATOM     34  C8  UNL     1      56.363  51.139  66.780  0.00  0.00    +0.000 A 
ATOM     35  C9  UNL     1      56.997  50.536  67.885  0.00  0.00    +0.000 A 
ATOM     36  C10 UNL     1      56.460  50.779  69.148  0.00  0.00    +0.000 A 
ATOM     37  N3  UNL     1      56.891  50.337  70.336  0.00  0.00    +0.000 N 
ATOM     38  H10 UNL     1      57.715  49.726  70.535  0.00  0.00    +0.000 HD
ENDBRANCH  28  29
ENDBRANCH  27  28
ENDBRANCH  25  27
ENDBRANCH   1  24
BRANCH   5  39
ATOM     39  N4  UNL     1      58.005  55.139  64.430  0.00  0.00    +0.000 N 
ATOM     40  O2  UNL     1      57.956  56.023  63.551  0.00  0.00    +0.000 OA
ATOM     41  O3  UNL     1      57.677  53.846  64.091  0.00  0.00    +0.000 OA
ENDBRANCH   5  39
TORSDOF 5
ENDMDL
MODEL 6
REMARK VINA RESULT:    -7.977      2.842      4.966
REMARK INTER + INTRA:         -11.759
REMARK INTER:                  -9.808
REMARK INTRA:                  -1.951
REMARK UNBOUND:                -1.450
REMARK  Name = CNP0606043_1.pdb
REMARK  5 active torsions:
REMARK  status: ('A' for Active; 'I' for Inactive)
REMARK    1  A    between atoms: C1_2  and  C11_15
REMARK    2  A    between atoms: N1_3  and  C2_4
REMARK    3  A    between atoms: C2_4  and  C3_5
REMARK    4  A    between atoms: C3_5  and  C4_6
REMARK    5  A    between atoms: C15_19  and  N4_20
REMARK                            x       y       z     vdW  Elec       q    Type
REMARK                         _______ _______ _______ _____ _____    ______ ____
ROOT
ATOM      1  C11 UNL     1      58.788  53.374  75.998  0.00  0.00    +0.000 C 
ATOM      2  C12 UNL     1      58.572  54.075  77.340  0.00  0.00    +0.000 C 
ATOM      3  C13 UNL     1      59.696  53.808  78.295  0.00  0.00    +0.000 A 
ATOM      4  C14 UNL     1      59.444  53.920  79.674  0.00  0.00    +0.000 A 
ATOM      5  C15 UNL     1      60.475  53.765  80.611  0.00  0.00    +0.000 A 
ATOM      6  C16 UNL     1      61.770  53.501  80.149  0.00  0.00    +0.000 A 
ATOM      7  C17 UNL     1      62.033  53.400  78.781  0.00  0.00    +0.000 A 
ATOM      8  C18 UNL     1      61.002  53.554  77.824  0.00  0.00    +0.000 A 
ATOM      9  N5  UNL     1      61.264  53.439  76.393  0.00  0.00    +0.000 N 
ATOM     10  C19 UNL     1      62.658  53.219  75.945  0.00  0.00    +0.000 C 
ATOM     11  C20 UNL     1      62.797  52.986  74.432  0.00  0.00    +0.000 C 
ATOM     12  C21 UNL     1      61.620  52.142  73.974  0.00  0.00    +0.000 C 
ATOM     13  C22 UNL     1      60.385  53.032  74.016  0.00  0.00    +0.000 C 
ATOM     14  C23 UNL     1      60.530  54.076  72.894  0.00  0.00    +0.000 C 
ATOM     15  N6  UNL     1      61.804  54.821  72.987  0.00  0.00    +0.000 N 
ATOM     16  C24 UNL     1      62.886  54.301  73.670  0.00  0.00    +0.000 A 
ATOM     17  C25 UNL     1      64.096  55.010  73.709  0.00  0.00    +0.000 A 
ATOM     18  C26 UNL     1      64.210  56.223  73.041  0.00  0.00    +0.000 A 
ATOM     19  C27 UNL     1      63.126  56.723  72.329  0.00  0.00    +0.000 A 
ATOM     20  C28 UNL     1      61.928  56.006  72.299  0.00  0.00    +0.000 A 
ATOM     21  O4  UNL     1      60.962  56.466  71.627  0.00  0.00    +0.000 OA
ATOM     22  C29 UNL     1      60.179  53.736  75.413  0.00  0.00    +0.000 C 
ENDROOT
BRANCH   1  24
ATOM     23  O1  UNL     1      57.566  54.970  74.683  0.00  0.00    +0.000 OA
ATOM     24  C1  UNL     1      57.665  53.772  75.066  0.00  0.00    +0.000 C 
ATOM     25  N1  UNL     1      56.677  52.809  74.671  0.00  0.00    +0.000 N 
ATOM     26  H1  UNL     1      56.769  51.822  74.999  0.00  0.00    +0.000 HD
BRANCH  25  27
ATOM     27  C2  UNL     1      55.552  53.195  73.820  0.00  0.00    +0.000 C 
BRANCH  27  28
ATOM     28  C3  UNL     1      54.261  53.311  74.634  0.00  0.00    +0.000 C 
BRANCH  28  29
ATOM     29  C4  UNL     1      54.514  54.056  75.907  0.00  0.00    +0.000 A 
ATOM     30  N2  UNL     1      54.771  53.434  77.089  0.00  0.00    +0.000 NA
ATOM     31  C5  UNL     1      54.996  54.462  77.924  0.00  0.00    +0.000 A 
ATOM     32  C6  UNL     1      55.325  54.408  79.278  0.00  0.00    +0.000 A 
ATOM     33  C7  UNL     1      55.533  55.629  79.949  0.00  0.00    +0.000 A 
ATOM     34  C8  UNL     1      55.412  56.858  79.260  0.00  0.00    +0.000 A 
ATOM     35  C9  UNL     1      55.082  56.875  77.890  0.00  0.00    +0.000 A 
ATOM     36  C10 UNL     1      54.881  55.648  77.260  0.00  0.00    +0.000 A 
ATOM     37  N3  UNL     1      54.580  55.410  75.977  0.00  0.00    +0.000 N 
ATOM     38  H10 UNL     1      54.439  56.104  75.209  0.00  0.00    +0.000 HD
ENDBRANCH  28  29
ENDBRANCH  27  28
ENDBRANCH  25  27
ENDBRANCH   1  24
BRANCH   5  39
ATOM     39  N4  UNL     1      60.214  53.899  82.021  0.00  0.00    +0.000 N 
ATOM     40  O2  UNL     1      60.330  55.006  82.586  0.00  0.00    +0.000 OA
ATOM     41  O3  UNL     1      59.894  52.797  82.781  0.00  0.00    +0.000 OA
ENDBRANCH   5  39
TORSDOF 5
ENDMDL
MODEL 7
REMARK VINA RESULT:    -7.948      4.141     10.220
REMARK INTER + INTRA:         -11.721
REMARK INTER:                 -10.244
REMARK INTRA:                  -1.476
REMARK UNBOUND:                -1.450
REMARK  Name = CNP0606043_1.pdb
REMARK  5 active torsions:
REMARK  status: ('A' for Active; 'I' for Inactive)
REMARK    1  A    between atoms: C1_2  and  C11_15
REMARK    2  A    between atoms: N1_3  and  C2_4
REMARK    3  A    between atoms: C2_4  and  C3_5
REMARK    4  A    between atoms: C3_5  and  C4_6
REMARK    5  A    between atoms: C15_19  and  N4_20
REMARK                            x       y       z     vdW  Elec       q    Type
REMARK                         _______ _______ _______ _____ _____    ______ ____
ROOT
ATOM      1  C11 UNL     1      59.651  55.444  67.782  0.00  0.00    +0.000 C 
ATOM      2  C12 UNL     1      58.905  56.112  66.626  0.00  0.00    +0.000 C 
ATOM      3  C13 UNL     1      58.595  55.140  65.529  0.00  0.00    +0.000 A 
ATOM      4  C14 UNL     1      58.397  55.639  64.229  0.00  0.00    +0.000 A 
ATOM      5  C15 UNL     1      58.021  54.789  63.179  0.00  0.00    +0.000 A 
ATOM      6  C16 UNL     1      57.837  53.427  63.448  0.00  0.00    +0.000 A 
ATOM      7  C17 UNL     1      58.020  52.925  64.738  0.00  0.00    +0.000 A 
ATOM      8  C18 UNL     1      58.399  53.770  65.807  0.00  0.00    +0.000 A 
ATOM      9  N5  UNL     1      58.603  53.253  67.157  0.00  0.00    +0.000 N 
ATOM     10  C19 UNL     1      58.341  51.818  67.411  0.00  0.00    +0.000 C 
ATOM     11  C20 UNL     1      58.710  51.359  68.830  0.00  0.00    +0.000 C 
ATOM     12  C21 UNL     1      59.990  52.068  69.237  0.00  0.00    +0.000 C 
ATOM     13  C22 UNL     1      59.634  53.526  69.491  0.00  0.00    +0.000 C 
ATOM     14  C23 UNL     1      58.778  53.578  70.769  0.00  0.00    +0.000 C 
ATOM     15  N6  UNL     1      57.603  52.685  70.690  0.00  0.00    +0.000 N 
ATOM     16  C24 UNL     1      57.577  51.617  69.813  0.00  0.00    +0.000 A 
ATOM     17  C25 UNL     1      56.466  50.760  69.786  0.00  0.00    +0.000 A 
ATOM     18  C26 UNL     1      55.404  50.975  70.656  0.00  0.00    +0.000 A 
ATOM     19  C27 UNL     1      55.454  52.033  71.556  0.00  0.00    +0.000 A 
ATOM     20  C28 UNL     1      56.566  52.878  71.572  0.00  0.00    +0.000 A 
ATOM     21  O4  UNL     1      56.601  53.819  72.414  0.00  0.00    +0.000 OA
ATOM     22  C29 UNL     1      58.875  54.196  68.280  0.00  0.00    +0.000 C 
ENDROOT
BRANCH   1  24
ATOM     23  O1  UNL     1      61.001  56.831  69.204  0.00  0.00    +0.000 OA
ATOM     24  C1  UNL     1      59.838  56.465  68.882  0.00  0.00    +0.000 C 
ATOM     25  N1  UNL     1      58.703  56.969  69.603  0.00  0.00    +0.000 N 
ATOM     26  H1  UNL     1      57.746  56.654  69.329  0.00  0.00    +0.000 HD
BRANCH  25  27
ATOM     27  C2  UNL     1      58.875  57.910  70.708  0.00  0.00    +0.000 C 
BRANCH  27  28
ATOM     28  C3  UNL     1      58.929  57.178  72.052  0.00  0.00    +0.000 C 
BRANCH  28  29
ATOM     29  C4  UNL     1      60.350  56.910  72.440  0.00  0.00    +0.000 A 
ATOM     30  N2  UNL     1      60.780  55.696  72.878  0.00  0.00    +0.000 NA
ATOM     31  C5  UNL     1      62.100  55.889  73.043  0.00  0.00    +0.000 A 
ATOM     32  C6  UNL     1      63.052  54.964  73.467  0.00  0.00    +0.000 A 
ATOM     33  C7  UNL     1      64.391  55.395  73.547  0.00  0.00    +0.000 A 
ATOM     34  C8  UNL     1      64.740  56.722  73.204  0.00  0.00    +0.000 A 
ATOM     35  C9  UNL     1      63.752  57.630  72.775  0.00  0.00    +0.000 A 
ATOM     36  C10 UNL     1      62.437  57.168  72.710  0.00  0.00    +0.000 A 
ATOM     37  N3  UNL     1      61.341  57.829  72.321  0.00  0.00    +0.000 N 
ATOM     38  H10 UNL     1      61.267  58.819  71.993  0.00  0.00    +0.000 HD
ENDBRANCH  28  29
ENDBRANCH  27  28
ENDBRANCH  25  27
ENDBRANCH   1  24
BRANCH   5  39
ATOM     39  N4  UNL     1      57.802  55.309  61.853  0.00  0.00    +0.000 N 
ATOM     40  O2  UNL     1      58.237  54.703  60.853  0.00  0.00    +0.000 OA
ATOM     41  O3  UNL     1      57.162  56.514  61.672  0.00  0.00    +0.000 OA
ENDBRANCH   5  39
TORSDOF 5
ENDMDL
MODEL 8
REMARK VINA RESULT:    -7.793      1.949      2.516
REMARK INTER + INTRA:         -11.521
REMARK INTER:                  -9.738
REMARK INTRA:                  -1.782
REMARK UNBOUND:                -1.450
REMARK  Name = CNP0606043_1.pdb
REMARK  5 active torsions:
REMARK  status: ('A' for Active; 'I' for Inactive)
REMARK    1  A    between atoms: C1_2  and  C11_15
REMARK    2  A    between atoms: N1_3  and  C2_4
REMARK    3  A    between atoms: C2_4  and  C3_5
REMARK    4  A    between atoms: C3_5  and  C4_6
REMARK    5  A    between atoms: C15_19  and  N4_20
REMARK                            x       y       z     vdW  Elec       q    Type
REMARK                         _______ _______ _______ _____ _____    ______ ____
ROOT
ATOM      1  C11 UNL     1      59.354  53.216  73.767  0.00  0.00    +0.000 C 
ATOM      2  C12 UNL     1      59.236  53.299  75.289  0.00  0.00    +0.000 C 
ATOM      3  C13 UNL     1      60.570  53.170  75.959  0.00  0.00    +0.000 A 
ATOM      4  C14 UNL     1      60.611  52.717  77.289  0.00  0.00    +0.000 A 
ATOM      5  C15 UNL     1      61.821  52.656  77.995  0.00  0.00    +0.000 A 
ATOM      6  C16 UNL     1      62.996  53.063  77.351  0.00  0.00    +0.000 A 
ATOM      7  C17 UNL     1      62.964  53.525  76.034  0.00  0.00    +0.000 A 
ATOM      8  C18 UNL     1      61.751  53.592  75.311  0.00  0.00    +0.000 A 
ATOM      9  N5  UNL     1      61.708  54.063  73.930  0.00  0.00    +0.000 N 
ATOM     10  C19 UNL     1      62.965  54.540  73.307  0.00  0.00    +0.000 C 
ATOM     11  C20 UNL     1      62.827  54.889  71.817  0.00  0.00    +0.000 C 
ATOM     12  C21 UNL     1      61.900  53.871  71.176  0.00  0.00    +0.000 C 
ATOM     13  C22 UNL     1      60.492  54.170  71.672  0.00  0.00    +0.000 C 
ATOM     14  C23 UNL     1      60.050  55.501  71.036  0.00  0.00    +0.000 C 
ATOM     15  N6  UNL     1      61.016  56.590  71.295  0.00  0.00    +0.000 N 
ATOM     16  C24 UNL     1      62.330  56.316  71.622  0.00  0.00    +0.000 A 
ATOM     17  C25 UNL     1      63.236  57.368  71.823  0.00  0.00    +0.000 A 
ATOM     18  C26 UNL     1      62.814  58.684  71.672  0.00  0.00    +0.000 A 
ATOM     19  C27 UNL     1      61.498  58.949  71.312  0.00  0.00    +0.000 A 
ATOM     20  C28 UNL     1      60.608  57.891  71.115  0.00  0.00    +0.000 A 
ATOM     21  O4  UNL     1      59.422  58.153  70.765  0.00  0.00    +0.000 OA
ATOM     22  C29 UNL     1      60.395  54.241  73.245  0.00  0.00    +0.000 C 
ENDROOT
BRANCH   1  24
ATOM     23  O1  UNL     1      57.431  54.577  73.301  0.00  0.00    +0.000 OA
ATOM     24  C1  UNL     1      57.985  53.451  73.170  0.00  0.00    +0.000 C 
ATOM     25  N1  UNL     1      57.287  52.382  72.514  0.00  0.00    +0.000 N 
ATOM     26  H1  UNL     1      57.755  51.453  72.416  0.00  0.00    +0.000 HD
BRANCH  25  27
ATOM     27  C2  UNL     1      55.938  52.579  71.986  0.00  0.00    +0.000 C 
BRANCH  27  28
ATOM     28  C3  UNL     1      55.877  52.254  70.492  0.00  0.00    +0.000 C 
BRANCH  28  29
ATOM     29  C4  UNL     1      56.722  53.216  69.717  0.00  0.00    +0.000 A 
ATOM     30  N2  UNL     1      57.861  52.845  69.071  0.00  0.00    +0.000 NA
ATOM     31  C5  UNL     1      58.246  53.984  68.468  0.00  0.00    +0.000 A 
ATOM     32  C6  UNL     1      59.357  54.185  67.650  0.00  0.00    +0.000 A 
ATOM     33  C7  UNL     1      59.547  55.473  67.112  0.00  0.00    +0.000 A 
ATOM     34  C8  UNL     1      58.635  56.514  67.401  0.00  0.00    +0.000 A 
ATOM     35  C9  UNL     1      57.520  56.274  68.229  0.00  0.00    +0.000 A 
ATOM     36  C10 UNL     1      57.365  54.988  68.744  0.00  0.00    +0.000 A 
ATOM     37  N3  UNL     1      56.390  54.518  69.531  0.00  0.00    +0.000 N 
ATOM     38  H10 UNL     1      55.560  55.032  69.906  0.00  0.00    +0.000 HD
ENDBRANCH  28  29
ENDBRANCH  27  28
ENDBRANCH  25  27
ENDBRANCH   1  24
BRANCH   5  39
ATOM     39  N4  UNL     1      61.854  52.209  79.364  0.00  0.00    +0.000 N 
ATOM     40  O2  UNL     1      61.251  51.172  79.708  0.00  0.00    +0.000 OA
ATOM     41  O3  UNL     1      62.499  52.952  80.326  0.00  0.00    +0.000 OA
ENDBRANCH   5  39
TORSDOF 5
ENDMDL
MODEL 9
REMARK VINA RESULT:    -7.547      3.003      7.269
REMARK INTER + INTRA:         -11.203
REMARK INTER:                  -9.173
REMARK INTRA:                  -2.030
REMARK UNBOUND:                -1.450
REMARK  Name = CNP0606043_1.pdb
REMARK  5 active torsions:
REMARK  status: ('A' for Active; 'I' for Inactive)
REMARK    1  A    between atoms: C1_2  and  C11_15
REMARK    2  A    between atoms: N1_3  and  C2_4
REMARK    3  A    between atoms: C2_4  and  C3_5
REMARK    4  A    between atoms: C3_5  and  C4_6
REMARK    5  A    between atoms: C15_19  and  N4_20
REMARK                            x       y       z     vdW  Elec       q    Type
REMARK                         _______ _______ _______ _____ _____    ______ ____
ROOT
ATOM      1  C11 UNL     1      59.485  54.220  75.018  0.00  0.00    +0.000 C 
ATOM      2  C12 UNL     1      59.996  53.507  76.271  0.00  0.00    +0.000 C 
ATOM      3  C13 UNL     1      59.210  53.888  77.488  0.00  0.00    +0.000 A 
ATOM      4  C14 UNL     1      59.821  53.758  78.748  0.00  0.00    +0.000 A 
ATOM      5  C15 UNL     1      59.108  54.018  79.927  0.00  0.00    +0.000 A 
ATOM      6  C16 UNL     1      57.766  54.406  79.829  0.00  0.00    +0.000 A 
ATOM      7  C17 UNL     1      57.147  54.527  78.584  0.00  0.00    +0.000 A 
ATOM      8  C18 UNL     1      57.854  54.267  77.386  0.00  0.00    +0.000 A 
ATOM      9  N5  UNL     1      57.220  54.401  76.078  0.00  0.00    +0.000 N 
ATOM     10  C19 UNL     1      55.783  54.756  76.023  0.00  0.00    +0.000 C 
ATOM     11  C20 UNL     1      55.255  54.996  74.600  0.00  0.00    +0.000 C 
ATOM     12  C21 UNL     1      56.334  55.717  73.811  0.00  0.00    +0.000 C 
ATOM     13  C22 UNL     1      57.443  54.709  73.540  0.00  0.00    +0.000 C 
ATOM     14  C23 UNL     1      56.896  53.680  72.534  0.00  0.00    +0.000 C 
ATOM     15  N6  UNL     1      55.634  53.065  72.996  0.00  0.00    +0.000 N 
ATOM     16  C24 UNL     1      54.836  53.692  73.933  0.00  0.00    +0.000 A 
ATOM     17  C25 UNL     1      53.622  53.106  74.324  0.00  0.00    +0.000 A 
ATOM     18  C26 UNL     1      53.215  51.908  73.752  0.00  0.00    +0.000 A 
ATOM     19  C27 UNL     1      54.009  51.301  72.786  0.00  0.00    +0.000 A 
ATOM     20  C28 UNL     1      55.215  51.895  72.406  0.00  0.00    +0.000 A 
ATOM     21  O4  UNL     1      55.910  51.339  71.510  0.00  0.00    +0.000 OA
ATOM     22  C29 UNL     1      57.959  53.994  74.848  0.00  0.00    +0.000 C 
ENDROOT
BRANCH   1  24
ATOM     23  O1  UNL     1      60.201  52.488  73.515  0.00  0.00    +0.000 OA
ATOM     24  C1  UNL     1      60.265  53.709  73.827  0.00  0.00    +0.000 C 
ATOM     25  N1  UNL     1      61.127  54.591  73.094  0.00  0.00    +0.000 N 
ATOM     26  H1  UNL     1      61.175  55.598  73.365  0.00  0.00    +0.000 HD
BRANCH  25  27
ATOM     27  C2  UNL     1      61.933  54.096  71.979  0.00  0.00    +0.000 C 
BRANCH  27  28
ATOM     28  C3  UNL     1      63.404  53.958  72.381  0.00  0.00    +0.000 C 
BRANCH  28  29
ATOM     29  C4  UNL     1      63.514  53.397  73.764  0.00  0.00    +0.000 A 
ATOM     30  N2  UNL     1      63.639  54.179  74.871  0.00  0.00    +0.000 NA
ATOM     31  C5  UNL     1      63.636  53.281  75.871  0.00  0.00    +0.000 A 
ATOM     32  C6  UNL     1      63.725  53.526  77.240  0.00  0.00    +0.000 A 
ATOM     33  C7  UNL     1      63.684  52.417  78.107  0.00  0.00    +0.000 A 
ATOM     34  C8  UNL     1      63.554  51.106  77.591  0.00  0.00    +0.000 A 
ATOM     35  C9  UNL     1      63.464  50.895  76.201  0.00  0.00    +0.000 A 
ATOM     36  C10 UNL     1      63.510  52.017  75.374  0.00  0.00    +0.000 A 
ATOM     37  N3  UNL     1      63.426  52.071  74.039  0.00  0.00    +0.000 N 
ATOM     38  H10 UNL     1      63.310  51.279  73.367  0.00  0.00    +0.000 HD
ENDBRANCH  28  29
ENDBRANCH  27  28
ENDBRANCH  25  27
ENDBRANCH   1  24
BRANCH   5  39
ATOM     39  N4  UNL     1      59.734  53.864  81.215  0.00  0.00    +0.000 N 
ATOM     40  O2  UNL     1      59.067  53.981  82.263  0.00  0.00    +0.000 OA
ATOM     41  O3  UNL     1      61.089  53.647  81.312  0.00  0.00    +0.000 OA
ENDBRANCH   5  39
TORSDOF 5
ENDMDL
MODEL 10
REMARK VINA RESULT:    -7.379      3.893      9.112
REMARK INTER + INTRA:         -10.986
REMARK INTER:                 -10.057
REMARK INTRA:                  -0.930
REMARK UNBOUND:                -1.450
REMARK  Name = CNP0606043_1.pdb
REMARK  5 active torsions:
REMARK  status: ('A' for Active; 'I' for Inactive)
REMARK    1  A    between atoms: C1_2  and  C11_15
REMARK    2  A    between atoms: N1_3  and  C2_4
REMARK    3  A    between atoms: C2_4  and  C3_5
REMARK    4  A    between atoms: C3_5  and  C4_6
REMARK    5  A    between atoms: C15_19  and  N4_20
REMARK                            x       y       z     vdW  Elec       q    Type
REMARK                         _______ _______ _______ _____ _____    ______ ____
ROOT
ATOM      1  C11 UNL     1      57.211  54.181  70.172  0.00  0.00    +0.000 C 
ATOM      2  C12 UNL     1      57.505  53.290  68.964  0.00  0.00    +0.000 C 
ATOM      3  C13 UNL     1      57.777  54.096  67.731  0.00  0.00    +0.000 A 
ATOM      4  C14 UNL     1      57.559  53.497  66.477  0.00  0.00    +0.000 A 
ATOM      5  C15 UNL     1      57.875  54.171  65.289  0.00  0.00    +0.000 A 
ATOM      6  C16 UNL     1      58.423  55.458  65.372  0.00  0.00    +0.000 A 
ATOM      7  C17 UNL     1      58.654  56.056  66.612  0.00  0.00    +0.000 A 
ATOM      8  C18 UNL     1      58.340  55.388  67.818  0.00  0.00    +0.000 A 
ATOM      9  N5  UNL     1      58.567  56.008  69.119  0.00  0.00    +0.000 N 
ATOM     10  C19 UNL     1      59.202  57.346  69.162  0.00  0.00    +0.000 C 
ATOM     11  C20 UNL     1      59.275  57.956  70.571  0.00  0.00    +0.000 C 
ATOM     12  C21 UNL     1      57.991  57.607  71.304  0.00  0.00    +0.000 C 
ATOM     13  C22 UNL     1      58.049  56.121  71.630  0.00  0.00    +0.000 C 
ATOM     14  C23 UNL     1      59.135  55.926  72.705  0.00  0.00    +0.000 C 
ATOM     15  N6  UNL     1      60.435  56.496  72.294  0.00  0.00    +0.000 N 
ATOM     16  C24 UNL     1      60.509  57.477  71.324  0.00  0.00    +0.000 A 
ATOM     17  C25 UNL     1      61.752  58.030  70.980  0.00  0.00    +0.000 A 
ATOM     18  C26 UNL     1      62.903  57.605  71.632  0.00  0.00    +0.000 A 
ATOM     19  C27 UNL     1      62.815  56.641  72.630  0.00  0.00    +0.000 A 
ATOM     20  C28 UNL     1      61.571  56.099  72.960  0.00  0.00    +0.000 A 
ATOM     21  O4  UNL     1      61.509  55.241  73.886  0.00  0.00    +0.000 OA
ATOM     22  C29 UNL     1      58.344  55.223  70.367  0.00  0.00    +0.000 C 
ENDROOT
BRANCH   1  24
ATOM     23  O1  UNL     1      57.896  52.396  71.626  0.00  0.00    +0.000 OA
ATOM     24  C1  UNL     1      57.045  53.296  71.387  0.00  0.00    +0.000 C 
ATOM     25  N1  UNL     1      55.892  53.433  72.230  0.00  0.00    +0.000 N 
ATOM     26  H1  UNL     1      55.193  54.179  72.019  0.00  0.00    +0.000 HD
BRANCH  25  27
ATOM     27  C2  UNL     1      55.688  52.543  73.372  0.00  0.00    +0.000 C 
BRANCH  27  28
ATOM     28  C3  UNL     1      56.485  53.018  74.590  0.00  0.00    +0.000 C 
BRANCH  28  29
ATOM     29  C4  UNL     1      55.673  53.980  75.399  0.00  0.00    +0.000 A 
ATOM     30  N2  UNL     1      54.317  53.908  75.491  0.00  0.00    +0.000 NA
ATOM     31  C5  UNL     1      54.024  54.899  76.351  0.00  0.00    +0.000 A 
ATOM     32  C6  UNL     1      52.768  55.276  76.824  0.00  0.00    +0.000 A 
ATOM     33  C7  UNL     1      52.709  56.343  77.742  0.00  0.00    +0.000 A 
ATOM     34  C8  UNL     1      53.891  56.997  78.160  0.00  0.00    +0.000 A 
ATOM     35  C9  UNL     1      55.145  56.587  77.663  0.00  0.00    +0.000 A 
ATOM     36  C10 UNL     1      55.164  55.529  76.755  0.00  0.00    +0.000 A 
ATOM     37  N3  UNL     1      56.220  54.957  76.166  0.00  0.00    +0.000 N 
ATOM     38  H10 UNL     1      57.231  55.199  76.278  0.00  0.00    +0.000 HD
ENDBRANCH  28  29
ENDBRANCH  27  28
ENDBRANCH  25  27
ENDBRANCH   1  24
BRANCH   5  39
ATOM     39  N4  UNL     1      57.667  53.545  64.009  0.00  0.00    +0.000 N 
ATOM     40  O2  UNL     1      57.117  52.428  63.930  0.00  0.00    +0.000 OA
ATOM     41  O3  UNL     1      58.127  54.142  62.857  0.00  0.00    +0.000 OA
ENDBRANCH   5  39
TORSDOF 5
ENDMDL
