MODEL 1
REMARK VINA RESULT:    -8.683      0.000      0.000
REMARK INTER + INTRA:         -12.361
REMARK INTER:                 -11.222
REMARK INTRA:                  -1.140
REMARK UNBOUND:                -1.140
REMARK  Name = CNP0139822_1.pdb
REMARK  5 active torsions:
REMARK  status: ('A' for Active; 'I' for Inactive)
REMARK    1  A    between atoms: C3_4  and  C4_5
REMARK    2  A    between atoms: C4_5  and  C5_6
REMARK    3  A    between atoms: N3_27  and  C21_28
REMARK    4  A    between atoms: C21_28  and  C22_29
REMARK    5  A    between atoms: C22_29  and  C23_30
REMARK                            x       y       z     vdW  Elec       q    Type
REMARK                         _______ _______ _______ _____ _____    ______ ____
ROOT
ATOM      1  O1  UNL     1      59.905  58.692  68.399  0.00  0.00    +0.000 OA
ATOM      2  C1  UNL     1      59.210  57.880  69.066  0.00  0.00    +0.000 C 
ATOM      3  C2  UNL     1      58.989  57.986  70.550  0.00  0.00    +0.000 C 
ATOM      4  C3  UNL     1      60.208  57.700  71.458  0.00  0.00    +0.000 C 
ATOM      5  N1  UNL     1      59.834  56.643  72.409  0.00  0.00    +0.000 NA
ATOM      6  C11 UNL     1      58.646  55.960  71.880  0.00  0.00    +0.000 C 
ATOM      7  C12 UNL     1      59.034  54.586  71.369  0.00  0.00    +0.000 C 
ATOM      8  O2  UNL     1      59.850  54.375  70.433  0.00  0.00    +0.000 OA
ATOM      9  N2  UNL     1      58.388  53.528  72.067  0.00  0.00    +0.000 N 
ATOM     10  C13 UNL     1      57.585  54.166  73.041  0.00  0.00    +0.000 A 
ATOM     11  C14 UNL     1      56.764  53.539  73.984  0.00  0.00    +0.000 A 
ATOM     12 CL1  UNL     1      56.628  51.791  74.057  0.00  0.00    +0.000 Cl
ATOM     13  C15 UNL     1      56.046  54.345  74.881  0.00  0.00    +0.000 A 
ATOM     14  C16 UNL     1      56.157  55.747  74.826  0.00  0.00    +0.000 A 
ATOM     15  C17 UNL     1      56.988  56.356  73.872  0.00  0.00    +0.000 A 
ATOM     16  C18 UNL     1      57.695  55.542  72.981  0.00  0.00    +0.000 A 
ATOM     17  C19 UNL     1      57.965  56.885  70.848  0.00  0.00    +0.000 C 
ATOM     18  C20 UNL     1      57.688  56.271  69.506  0.00  0.00    +0.000 C 
ATOM     19  O3  UNL     1      56.819  55.380  69.308  0.00  0.00    +0.000 OA
ATOM     20  N3  UNL     1      58.476  56.826  68.467  0.00  0.00    +0.000 N 
ATOM     21  H10 UNL     1      59.608  57.102  73.323  0.00  0.00    +0.000 HD
ATOM     22  H11 UNL     1      58.499  52.504  71.900  0.00  0.00    +0.000 HD
ENDROOT
BRANCH   4  23
ATOM     23  C4  UNL     1      61.508  57.310  70.720  0.00  0.00    +0.000 C 
BRANCH  23  24
ATOM     24  C5  UNL     1      62.599  56.933  71.690  0.00  0.00    +0.000 A 
ATOM     25  C6  UNL     1      63.381  57.927  72.302  0.00  0.00    +0.000 A 
ATOM     26  C7  UNL     1      64.416  57.573  73.173  0.00  0.00    +0.000 A 
ATOM     27  C8  UNL     1      64.682  56.226  73.434  0.00  0.00    +0.000 A 
ATOM     28  C9  UNL     1      63.915  55.231  72.822  0.00  0.00    +0.000 A 
ATOM     29  C10 UNL     1      62.880  55.581  71.949  0.00  0.00    +0.000 A 
ENDBRANCH  23  24
ENDBRANCH   4  23
BRANCH  20  30
ATOM     30  C21 UNL     1      58.262  56.633  67.035  0.00  0.00    +0.000 C 
BRANCH  30  31
ATOM     31  C22 UNL     1      59.259  55.612  66.482  0.00  0.00    +0.000 C 
BRANCH  31  32
ATOM     32  C23 UNL     1      58.540  54.514  65.749  0.00  0.00    +0.000 A 
ATOM     33  C24 UNL     1      57.776  53.570  66.457  0.00  0.00    +0.000 A 
ATOM     34  C25 UNL     1      57.136  52.529  65.778  0.00  0.00    +0.000 A 
ATOM     35  C26 UNL     1      57.259  52.418  64.391  0.00  0.00    +0.000 A 
ATOM     36  C27 UNL     1      58.026  53.344  63.680  0.00  0.00    +0.000 A 
ATOM     37  C28 UNL     1      58.671  54.386  64.356  0.00  0.00    +0.000 A 
ENDBRANCH  31  32
ENDBRANCH  30  31
ENDBRANCH  20  30
TORSDOF 5
ENDMDL
MODEL 2
REMARK VINA RESULT:    -8.209      2.462      6.863
REMARK INTER + INTRA:         -11.748
REMARK INTER:                 -10.668
REMARK INTRA:                  -1.080
REMARK UNBOUND:                -1.140
REMARK  Name = CNP0139822_1.pdb
REMARK  5 active torsions:
REMARK  status: ('A' for Active; 'I' for Inactive)
REMARK    1  A    between atoms: C3_4  and  C4_5
REMARK    2  A    between atoms: C4_5  and  C5_6
REMARK    3  A    between atoms: N3_27  and  C21_28
REMARK    4  A    between atoms: C21_28  and  C22_29
REMARK    5  A    between atoms: C22_29  and  C23_30
REMARK                            x       y       z     vdW  Elec       q    Type
REMARK                         _______ _______ _______ _____ _____    ______ ____
ROOT
ATOM      1  O1  UNL     1      59.520  55.093  72.880  0.00  0.00    +0.000 OA
ATOM      2  C1  UNL     1      59.127  54.994  71.686  0.00  0.00    +0.000 C 
ATOM      3  C2  UNL     1      59.948  54.389  70.581  0.00  0.00    +0.000 C 
ATOM      4  C3  UNL     1      61.187  55.190  70.114  0.00  0.00    +0.000 C 
ATOM      5  N1  UNL     1      61.074  55.406  68.664  0.00  0.00    +0.000 NA
ATOM      6  C11 UNL     1      59.673  55.186  68.282  0.00  0.00    +0.000 C 
ATOM      7  C12 UNL     1      59.017  56.516  67.965  0.00  0.00    +0.000 C 
ATOM      8  O2  UNL     1      58.881  57.460  68.786  0.00  0.00    +0.000 OA
ATOM      9  N2  UNL     1      58.570  56.609  66.617  0.00  0.00    +0.000 N 
ATOM     10  C13 UNL     1      58.922  55.373  66.026  0.00  0.00    +0.000 A 
ATOM     11  C14 UNL     1      58.698  54.991  64.699  0.00  0.00    +0.000 A 
ATOM     12 CL1  UNL     1      57.899  56.064  63.563  0.00  0.00    +0.000 Cl
ATOM     13  C15 UNL     1      59.131  53.720  64.290  0.00  0.00    +0.000 A 
ATOM     14  C16 UNL     1      59.775  52.860  65.200  0.00  0.00    +0.000 A 
ATOM     15  C17 UNL     1      59.991  53.265  66.528  0.00  0.00    +0.000 A 
ATOM     16  C18 UNL     1      59.552  54.532  66.923  0.00  0.00    +0.000 A 
ATOM     17  C19 UNL     1      58.986  54.354  69.388  0.00  0.00    +0.000 C 
ATOM     18  C20 UNL     1      57.708  54.923  69.932  0.00  0.00    +0.000 C 
ATOM     19  O3  UNL     1      56.631  54.979  69.280  0.00  0.00    +0.000 OA
ATOM     20  N3  UNL     1      57.820  55.356  71.277  0.00  0.00    +0.000 N 
ATOM     21  H10 UNL     1      61.691  54.705  68.189  0.00  0.00    +0.000 HD
ATOM     22  H11 UNL     1      58.097  57.423  66.166  0.00  0.00    +0.000 HD
ENDROOT
BRANCH   4  23
ATOM     23  C4  UNL     1      61.412  56.539  70.832  0.00  0.00    +0.000 C 
BRANCH  23  24
ATOM     24  C5  UNL     1      62.617  56.486  71.738  0.00  0.00    +0.000 A 
ATOM     25  C6  UNL     1      63.076  55.256  72.238  0.00  0.00    +0.000 A 
ATOM     26  C7  UNL     1      64.172  55.215  73.107  0.00  0.00    +0.000 A 
ATOM     27  C8  UNL     1      64.811  56.398  73.486  0.00  0.00    +0.000 A 
ATOM     28  C9  UNL     1      64.354  57.626  73.000  0.00  0.00    +0.000 A 
ATOM     29  C10 UNL     1      63.258  57.672  72.132  0.00  0.00    +0.000 A 
ENDBRANCH  23  24
ENDBRANCH   4  23
BRANCH  20  30
ATOM     30  C21 UNL     1      56.710  55.707  72.158  0.00  0.00    +0.000 C 
BRANCH  30  31
ATOM     31  C22 UNL     1      56.060  54.442  72.725  0.00  0.00    +0.000 C 
BRANCH  31  32
ATOM     32  C23 UNL     1      55.472  54.711  74.083  0.00  0.00    +0.000 A 
ATOM     33  C24 UNL     1      54.122  54.421  74.341  0.00  0.00    +0.000 A 
ATOM     34  C25 UNL     1      53.568  54.703  75.593  0.00  0.00    +0.000 A 
ATOM     35  C26 UNL     1      54.354  55.282  76.592  0.00  0.00    +0.000 A 
ATOM     36  C27 UNL     1      55.694  55.586  76.339  0.00  0.00    +0.000 A 
ATOM     37  C28 UNL     1      56.253  55.307  75.087  0.00  0.00    +0.000 A 
ENDBRANCH  31  32
ENDBRANCH  30  31
ENDBRANCH  20  30
TORSDOF 5
ENDMDL
MODEL 3
REMARK VINA RESULT:    -8.195      6.000      9.084
REMARK INTER + INTRA:         -11.730
REMARK INTER:                 -10.729
REMARK INTRA:                  -1.001
REMARK UNBOUND:                -1.140
REMARK  Name = CNP0139822_1.pdb
REMARK  5 active torsions:
REMARK  status: ('A' for Active; 'I' for Inactive)
REMARK    1  A    between atoms: C3_4  and  C4_5
REMARK    2  A    between atoms: C4_5  and  C5_6
REMARK    3  A    between atoms: N3_27  and  C21_28
REMARK    4  A    between atoms: C21_28  and  C22_29
REMARK    5  A    between atoms: C22_29  and  C23_30
REMARK                            x       y       z     vdW  Elec       q    Type
REMARK                         _______ _______ _______ _____ _____    ______ ____
ROOT
ATOM      1  O1  UNL     1      63.058  50.523  72.793  0.00  0.00    +0.000 OA
ATOM      2  C1  UNL     1      62.728  50.772  73.983  0.00  0.00    +0.000 C 
ATOM      3  C2  UNL     1      61.705  51.804  74.371  0.00  0.00    +0.000 C 
ATOM      4  C3  UNL     1      62.095  53.286  74.160  0.00  0.00    +0.000 C 
ATOM      5  N1  UNL     1      61.939  53.988  75.442  0.00  0.00    +0.000 NA
ATOM      6  C11 UNL     1      61.906  52.979  76.508  0.00  0.00    +0.000 C 
ATOM      7  C12 UNL     1      63.207  53.017  77.287  0.00  0.00    +0.000 C 
ATOM      8  O2  UNL     1      64.342  52.786  76.794  0.00  0.00    +0.000 OA
ATOM      9  N2  UNL     1      63.028  53.360  78.656  0.00  0.00    +0.000 N 
ATOM     10  C13 UNL     1      61.635  53.561  78.806  0.00  0.00    +0.000 A 
ATOM     11  C14 UNL     1      60.969  53.927  79.980  0.00  0.00    +0.000 A 
ATOM     12 CL1  UNL     1      61.840  54.181  81.483  0.00  0.00    +0.000 Cl
ATOM     13  C15 UNL     1      59.576  54.092  79.931  0.00  0.00    +0.000 A 
ATOM     14  C16 UNL     1      58.877  53.892  78.725  0.00  0.00    +0.000 A 
ATOM     15  C17 UNL     1      59.566  53.525  77.558  0.00  0.00    +0.000 A 
ATOM     16  C18 UNL     1      60.954  53.361  77.621  0.00  0.00    +0.000 A 
ATOM     17  C19 UNL     1      61.546  51.614  75.882  0.00  0.00    +0.000 C 
ATOM     18  C20 UNL     1      62.477  50.482  76.209  0.00  0.00    +0.000 C 
ATOM     19  O3  UNL     1      62.570  49.955  77.349  0.00  0.00    +0.000 OA
ATOM     20  N3  UNL     1      63.218  50.032  75.088  0.00  0.00    +0.000 N 
ATOM     21  H10 UNL     1      61.031  54.510  75.411  0.00  0.00    +0.000 HD
ATOM     22  H11 UNL     1      63.770  53.454  79.383  0.00  0.00    +0.000 HD
ENDROOT
BRANCH   4  23
ATOM     23  C4  UNL     1      63.515  53.524  73.598  0.00  0.00    +0.000 C 
BRANCH  23  24
ATOM     24  C5  UNL     1      63.688  54.946  73.125  0.00  0.00    +0.000 A 
ATOM     25  C6  UNL     1      64.656  55.778  73.713  0.00  0.00    +0.000 A 
ATOM     26  C7  UNL     1      64.789  57.106  73.297  0.00  0.00    +0.000 A 
ATOM     27  C8  UNL     1      63.956  57.614  72.297  0.00  0.00    +0.000 A 
ATOM     28  C9  UNL     1      62.984  56.796  71.714  0.00  0.00    +0.000 A 
ATOM     29  C10 UNL     1      62.847  55.467  72.129  0.00  0.00    +0.000 A 
ENDBRANCH  23  24
ENDBRANCH   4  23
BRANCH  20  30
ATOM     30  C21 UNL     1      63.999  48.800  75.017  0.00  0.00    +0.000 C 
BRANCH  30  31
ATOM     31  C22 UNL     1      65.193  48.872  75.971  0.00  0.00    +0.000 C 
BRANCH  31  32
ATOM     32  C23 UNL     1      66.486  48.868  75.203  0.00  0.00    +0.000 A 
ATOM     33  C24 UNL     1      66.694  49.785  74.159  0.00  0.00    +0.000 A 
ATOM     34  C25 UNL     1      67.882  49.759  73.424  0.00  0.00    +0.000 A 
ATOM     35  C26 UNL     1      68.867  48.813  73.719  0.00  0.00    +0.000 A 
ATOM     36  C27 UNL     1      68.664  47.888  74.747  0.00  0.00    +0.000 A 
ATOM     37  C28 UNL     1      67.475  47.910  75.484  0.00  0.00    +0.000 A 
ENDBRANCH  31  32
ENDBRANCH  30  31
ENDBRANCH  20  30
TORSDOF 5
ENDMDL
MODEL 4
REMARK VINA RESULT:    -7.981      1.731      6.506
REMARK INTER + INTRA:         -11.453
REMARK INTER:                 -10.302
REMARK INTRA:                  -1.152
REMARK UNBOUND:                -1.140
REMARK  Name = CNP0139822_1.pdb
REMARK  5 active torsions:
REMARK  status: ('A' for Active; 'I' for Inactive)
REMARK    1  A    between atoms: C3_4  and  C4_5
REMARK    2  A    between atoms: C4_5  and  C5_6
REMARK    3  A    between atoms: N3_27  and  C21_28
REMARK    4  A    between atoms: C21_28  and  C22_29
REMARK    5  A    between atoms: C22_29  and  C23_30
REMARK                            x       y       z     vdW  Elec       q    Type
REMARK                         _______ _______ _______ _____ _____    ______ ____
ROOT
ATOM      1  O1  UNL     1      60.569  56.182  68.697  0.00  0.00    +0.000 OA
ATOM      2  C1  UNL     1      60.047  55.967  69.824  0.00  0.00    +0.000 C 
ATOM      3  C2  UNL     1      59.250  54.737  70.158  0.00  0.00    +0.000 C 
ATOM      4  C3  UNL     1      57.865  54.598  69.482  0.00  0.00    +0.000 C 
ATOM      5  N1  UNL     1      56.857  54.416  70.537  0.00  0.00    +0.000 NA
ATOM      6  C11 UNL     1      57.445  54.862  71.806  0.00  0.00    +0.000 C 
ATOM      7  C12 UNL     1      56.823  56.182  72.219  0.00  0.00    +0.000 C 
ATOM      8  O2  UNL     1      56.895  57.247  71.551  0.00  0.00    +0.000 OA
ATOM      9  N2  UNL     1      56.121  56.105  73.454  0.00  0.00    +0.000 N 
ATOM     10  C13 UNL     1      56.252  54.759  73.870  0.00  0.00    +0.000 A 
ATOM     11  C14 UNL     1      55.717  54.190  75.030  0.00  0.00    +0.000 A 
ATOM     12 CL1  UNL     1      54.779  55.144  76.166  0.00  0.00    +0.000 Cl
ATOM     13  C15 UNL     1      55.947  52.826  75.268  0.00  0.00    +0.000 A 
ATOM     14  C16 UNL     1      56.696  52.059  74.356  0.00  0.00    +0.000 A 
ATOM     15  C17 UNL     1      57.222  52.651  73.196  0.00  0.00    +0.000 A 
ATOM     16  C18 UNL     1      56.990  54.011  72.972  0.00  0.00    +0.000 A 
ATOM     17  C19 UNL     1      58.983  54.869  71.661  0.00  0.00    +0.000 C 
ATOM     18  C20 UNL     1      59.667  56.150  72.042  0.00  0.00    +0.000 C 
ATOM     19  O3  UNL     1      59.759  56.572  73.226  0.00  0.00    +0.000 OA
ATOM     20  N3  UNL     1      60.241  56.824  70.936  0.00  0.00    +0.000 N 
ATOM     21  H10 UNL     1      56.629  53.394  70.585  0.00  0.00    +0.000 HD
ATOM     22  H11 UNL     1      55.608  56.876  73.936  0.00  0.00    +0.000 HD
ENDROOT
BRANCH   4  23
ATOM     23  C4  UNL     1      57.458  55.769  68.561  0.00  0.00    +0.000 C 
BRANCH  23  24
ATOM     24  C5  UNL     1      57.643  55.415  67.107  0.00  0.00    +0.000 A 
ATOM     25  C6  UNL     1      57.424  54.101  66.661  0.00  0.00    +0.000 A 
ATOM     26  C7  UNL     1      57.632  53.768  65.319  0.00  0.00    +0.000 A 
ATOM     27  C8  UNL     1      58.065  54.741  64.415  0.00  0.00    +0.000 A 
ATOM     28  C9  UNL     1      58.294  56.049  64.852  0.00  0.00    +0.000 A 
ATOM     29  C10 UNL     1      58.089  56.385  66.194  0.00  0.00    +0.000 A 
ENDBRANCH  23  24
ENDBRANCH   4  23
BRANCH  20  30
ATOM     30  C21 UNL     1      61.183  57.938  71.008  0.00  0.00    +0.000 C 
BRANCH  30  31
ATOM     31  C22 UNL     1      62.593  57.468  70.644  0.00  0.00    +0.000 C 
BRANCH  31  32
ATOM     32  C23 UNL     1      63.262  56.832  71.831  0.00  0.00    +0.000 A 
ATOM     33  C24 UNL     1      63.172  55.445  72.038  0.00  0.00    +0.000 A 
ATOM     34  C25 UNL     1      63.766  54.860  73.160  0.00  0.00    +0.000 A 
ATOM     35  C26 UNL     1      64.445  55.655  74.087  0.00  0.00    +0.000 A 
ATOM     36  C27 UNL     1      64.528  57.036  73.896  0.00  0.00    +0.000 A 
ATOM     37  C28 UNL     1      63.934  57.627  72.776  0.00  0.00    +0.000 A 
ENDBRANCH  31  32
ENDBRANCH  30  31
ENDBRANCH  20  30
TORSDOF 5
ENDMDL
MODEL 5
REMARK VINA RESULT:    -7.887      3.238      6.984
REMARK INTER + INTRA:         -11.332
REMARK INTER:                  -9.412
REMARK INTRA:                  -1.919
REMARK UNBOUND:                -1.140
REMARK  Name = CNP0139822_1.pdb
REMARK  5 active torsions:
REMARK  status: ('A' for Active; 'I' for Inactive)
REMARK    1  A    between atoms: C3_4  and  C4_5
REMARK    2  A    between atoms: C4_5  and  C5_6
REMARK    3  A    between atoms: N3_27  and  C21_28
REMARK    4  A    between atoms: C21_28  and  C22_29
REMARK    5  A    between atoms: C22_29  and  C23_30
REMARK                            x       y       z     vdW  Elec       q    Type
REMARK                         _______ _______ _______ _____ _____    ______ ____
ROOT
ATOM      1  O1  UNL     1      61.199  55.563  69.605  0.00  0.00    +0.000 OA
ATOM      2  C1  UNL     1      61.877  55.200  70.603  0.00  0.00    +0.000 C 
ATOM      3  C2  UNL     1      62.222  53.769  70.907  0.00  0.00    +0.000 C 
ATOM      4  C3  UNL     1      61.060  52.850  71.353  0.00  0.00    +0.000 C 
ATOM      5  N1  UNL     1      61.422  52.247  72.644  0.00  0.00    +0.000 NA
ATOM      6  C11 UNL     1      62.505  53.047  73.229  0.00  0.00    +0.000 C 
ATOM      7  C12 UNL     1      61.968  53.856  74.394  0.00  0.00    +0.000 C 
ATOM      8  O2  UNL     1      61.067  54.730  74.302  0.00  0.00    +0.000 OA
ATOM      9  N2  UNL     1      62.580  53.521  75.633  0.00  0.00    +0.000 N 
ATOM     10  C13 UNL     1      63.507  52.499  75.323  0.00  0.00    +0.000 A 
ATOM     11  C14 UNL     1      64.346  51.835  76.223  0.00  0.00    +0.000 A 
ATOM     12 CL1  UNL     1      64.347  52.229  77.933  0.00  0.00    +0.000 Cl
ATOM     13  C15 UNL     1      65.196  50.833  75.726  0.00  0.00    +0.000 A 
ATOM     14  C16 UNL     1      65.194  50.513  74.355  0.00  0.00    +0.000 A 
ATOM     15  C17 UNL     1      64.342  51.192  73.469  0.00  0.00    +0.000 A 
ATOM     16  C18 UNL     1      63.503  52.190  73.976  0.00  0.00    +0.000 A 
ATOM     17  C19 UNL     1      63.174  53.866  72.103  0.00  0.00    +0.000 C 
ATOM     18  C20 UNL     1      63.295  55.342  72.355  0.00  0.00    +0.000 C 
ATOM     19  O3  UNL     1      64.070  55.847  73.210  0.00  0.00    +0.000 OA
ATOM     20  N3  UNL     1      62.474  56.120  71.501  0.00  0.00    +0.000 N 
ATOM     21  H10 UNL     1      61.755  51.271  72.456  0.00  0.00    +0.000 HD
ATOM     22  H11 UNL     1      62.374  53.936  76.569  0.00  0.00    +0.000 HD
ENDROOT
BRANCH   4  23
ATOM     23  C4  UNL     1      59.679  53.534  71.459  0.00  0.00    +0.000 C 
BRANCH  23  24
ATOM     24  C5  UNL     1      58.845  53.286  70.227  0.00  0.00    +0.000 A 
ATOM     25  C6  UNL     1      57.633  53.972  70.038  0.00  0.00    +0.000 A 
ATOM     26  C7  UNL     1      56.845  53.712  68.912  0.00  0.00    +0.000 A 
ATOM     27  C8  UNL     1      57.257  52.763  67.972  0.00  0.00    +0.000 A 
ATOM     28  C9  UNL     1      58.456  52.069  68.158  0.00  0.00    +0.000 A 
ATOM     29  C10 UNL     1      59.246  52.325  69.284  0.00  0.00    +0.000 A 
ENDBRANCH  23  24
ENDBRANCH   4  23
BRANCH  20  30
ATOM     30  C21 UNL     1      62.557  57.567  71.319  0.00  0.00    +0.000 C 
BRANCH  30  31
ATOM     31  C22 UNL     1      61.571  58.277  72.249  0.00  0.00    +0.000 C 
BRANCH  31  32
ATOM     32  C23 UNL     1      60.154  57.946  71.870  0.00  0.00    +0.000 A 
ATOM     33  C24 UNL     1      59.308  57.296  72.786  0.00  0.00    +0.000 A 
ATOM     34  C25 UNL     1      58.002  56.959  72.421  0.00  0.00    +0.000 A 
ATOM     35  C26 UNL     1      57.533  57.259  71.139  0.00  0.00    +0.000 A 
ATOM     36  C27 UNL     1      58.372  57.893  70.219  0.00  0.00    +0.000 A 
ATOM     37  C28 UNL     1      59.680  58.231  70.579  0.00  0.00    +0.000 A 
ENDBRANCH  31  32
ENDBRANCH  30  31
ENDBRANCH  20  30
TORSDOF 5
ENDMDL
MODEL 6
REMARK VINA RESULT:    -7.870      2.648      6.177
REMARK INTER + INTRA:         -11.310
REMARK INTER:                 -10.701
REMARK INTRA:                  -0.609
REMARK UNBOUND:                -1.140
REMARK  Name = CNP0139822_1.pdb
REMARK  5 active torsions:
REMARK  status: ('A' for Active; 'I' for Inactive)
REMARK    1  A    between atoms: C3_4  and  C4_5
REMARK    2  A    between atoms: C4_5  and  C5_6
REMARK    3  A    between atoms: N3_27  and  C21_28
REMARK    4  A    between atoms: C21_28  and  C22_29
REMARK    5  A    between atoms: C22_29  and  C23_30
REMARK                            x       y       z     vdW  Elec       q    Type
REMARK                         _______ _______ _______ _____ _____    ______ ____
ROOT
ATOM      1  O1  UNL     1      61.122  56.364  69.241  0.00  0.00    +0.000 OA
ATOM      2  C1  UNL     1      60.380  55.346  69.285  0.00  0.00    +0.000 C 
ATOM      3  C2  UNL     1      59.014  55.277  68.660  0.00  0.00    +0.000 C 
ATOM      4  C3  UNL     1      57.902  56.125  69.321  0.00  0.00    +0.000 C 
ATOM      5  N1  UNL     1      56.783  55.232  69.657  0.00  0.00    +0.000 NA
ATOM      6  C11 UNL     1      57.289  53.854  69.655  0.00  0.00    +0.000 C 
ATOM      7  C12 UNL     1      57.388  53.345  71.080  0.00  0.00    +0.000 C 
ATOM      8  O2  UNL     1      58.120  53.852  71.971  0.00  0.00    +0.000 OA
ATOM      9  N2  UNL     1      56.549  52.225  71.332  0.00  0.00    +0.000 N 
ATOM     10  C13 UNL     1      55.884  51.980  70.108  0.00  0.00    +0.000 A 
ATOM     11  C14 UNL     1      54.940  50.978  69.859  0.00  0.00    +0.000 A 
ATOM     12 CL1  UNL     1      54.460  49.845  71.110  0.00  0.00    +0.000 Cl
ATOM     13  C15 UNL     1      54.378  50.898  68.575  0.00  0.00    +0.000 A 
ATOM     14  C16 UNL     1      54.759  51.808  67.572  0.00  0.00    +0.000 A 
ATOM     15  C17 UNL     1      55.708  52.807  67.844  0.00  0.00    +0.000 A 
ATOM     16  C18 UNL     1      56.264  52.874  69.126  0.00  0.00    +0.000 A 
ATOM     17  C19 UNL     1      58.602  53.812  68.842  0.00  0.00    +0.000 C 
ATOM     18  C20 UNL     1      59.777  53.185  69.535  0.00  0.00    +0.000 C 
ATOM     19  O3  UNL     1      59.870  51.953  69.782  0.00  0.00    +0.000 OA
ATOM     20  N3  UNL     1      60.799  54.115  69.847  0.00  0.00    +0.000 N 
ATOM     21  H10 UNL     1      56.050  55.348  68.917  0.00  0.00    +0.000 HD
ATOM     22  H11 UNL     1      56.442  51.709  72.233  0.00  0.00    +0.000 HD
ENDROOT
BRANCH   4  23
ATOM     23  C4  UNL     1      58.332  56.924  70.571  0.00  0.00    +0.000 C 
BRANCH  23  24
ATOM     24  C5  UNL     1      58.998  58.223  70.192  0.00  0.00    +0.000 A 
ATOM     25  C6  UNL     1      58.561  58.944  69.068  0.00  0.00    +0.000 A 
ATOM     26  C7  UNL     1      59.204  60.130  68.698  0.00  0.00    +0.000 A 
ATOM     27  C8  UNL     1      60.290  60.600  69.442  0.00  0.00    +0.000 A 
ATOM     28  C9  UNL     1      60.737  59.883  70.555  0.00  0.00    +0.000 A 
ATOM     29  C10 UNL     1      60.097  58.696  70.928  0.00  0.00    +0.000 A 
ENDBRANCH  23  24
ENDBRANCH   4  23
BRANCH  20  30
ATOM     30  C21 UNL     1      62.156  53.784  70.276  0.00  0.00    +0.000 C 
BRANCH  30  31
ATOM     31  C22 UNL     1      62.255  53.823  71.803  0.00  0.00    +0.000 C 
BRANCH  31  32
ATOM     32  C23 UNL     1      63.036  55.027  72.252  0.00  0.00    +0.000 A 
ATOM     33  C24 UNL     1      64.114  54.881  73.142  0.00  0.00    +0.000 A 
ATOM     34  C25 UNL     1      64.818  56.005  73.586  0.00  0.00    +0.000 A 
ATOM     35  C26 UNL     1      64.446  57.280  73.151  0.00  0.00    +0.000 A 
ATOM     36  C27 UNL     1      63.367  57.435  72.277  0.00  0.00    +0.000 A 
ATOM     37  C28 UNL     1      62.659  56.314  71.832  0.00  0.00    +0.000 A 
ENDBRANCH  31  32
ENDBRANCH  30  31
ENDBRANCH  20  30
TORSDOF 5
ENDMDL
MODEL 7
REMARK VINA RESULT:    -7.852      2.316      7.081
REMARK INTER + INTRA:         -11.286
REMARK INTER:                 -10.190
REMARK INTRA:                  -1.096
REMARK UNBOUND:                -1.140
REMARK  Name = CNP0139822_1.pdb
REMARK  5 active torsions:
REMARK  status: ('A' for Active; 'I' for Inactive)
REMARK    1  A    between atoms: C3_4  and  C4_5
REMARK    2  A    between atoms: C4_5  and  C5_6
REMARK    3  A    between atoms: N3_27  and  C21_28
REMARK    4  A    between atoms: C21_28  and  C22_29
REMARK    5  A    between atoms: C22_29  and  C23_30
REMARK                            x       y       z     vdW  Elec       q    Type
REMARK                         _______ _______ _______ _____ _____    ______ ____
ROOT
ATOM      1  O1  UNL     1      58.099  57.520  72.633  0.00  0.00    +0.000 OA
ATOM      2  C1  UNL     1      58.450  56.993  71.544  0.00  0.00    +0.000 C 
ATOM      3  C2  UNL     1      57.556  56.117  70.710  0.00  0.00    +0.000 C 
ATOM      4  C3  UNL     1      57.214  54.722  71.284  0.00  0.00    +0.000 C 
ATOM      5  N1  UNL     1      57.592  53.710  70.286  0.00  0.00    +0.000 NA
ATOM      6  C11 UNL     1      58.527  54.335  69.341  0.00  0.00    +0.000 C 
ATOM      7  C12 UNL     1      59.927  53.805  69.584  0.00  0.00    +0.000 C 
ATOM      8  O2  UNL     1      60.567  53.944  70.659  0.00  0.00    +0.000 OA
ATOM      9  N2  UNL     1      60.461  53.108  68.466  0.00  0.00    +0.000 N 
ATOM     10  C13 UNL     1      59.443  53.151  67.484  0.00  0.00    +0.000 A 
ATOM     11  C14 UNL     1      59.495  52.587  66.205  0.00  0.00    +0.000 A 
ATOM     12 CL1  UNL     1      60.916  51.723  65.646  0.00  0.00    +0.000 Cl
ATOM     13  C15 UNL     1      58.375  52.726  65.370  0.00  0.00    +0.000 A 
ATOM     14  C16 UNL     1      57.233  53.416  65.820  0.00  0.00    +0.000 A 
ATOM     15  C17 UNL     1      57.202  53.974  67.108  0.00  0.00    +0.000 A 
ATOM     16  C18 UNL     1      58.326  53.831  67.928  0.00  0.00    +0.000 A 
ATOM     17  C19 UNL     1      58.371  55.869  69.436  0.00  0.00    +0.000 C 
ATOM     18  C20 UNL     1      59.640  56.640  69.658  0.00  0.00    +0.000 C 
ATOM     19  O3  UNL     1      60.545  56.767  68.790  0.00  0.00    +0.000 OA
ATOM     20  N3  UNL     1      59.703  57.251  70.935  0.00  0.00    +0.000 N 
ATOM     21  H10 UNL     1      56.719  53.415  69.787  0.00  0.00    +0.000 HD
ATOM     22  H11 UNL     1      61.397  52.651  68.397  0.00  0.00    +0.000 HD
ENDROOT
BRANCH   4  23
ATOM     23  C4  UNL     1      57.865  54.388  72.645  0.00  0.00    +0.000 C 
BRANCH  23  24
ATOM     24  C5  UNL     1      56.876  54.521  73.775  0.00  0.00    +0.000 A 
ATOM     25  C6  UNL     1      55.498  54.603  73.509  0.00  0.00    +0.000 A 
ATOM     26  C7  UNL     1      54.587  54.763  74.557  0.00  0.00    +0.000 A 
ATOM     27  C8  UNL     1      55.042  54.849  75.876  0.00  0.00    +0.000 A 
ATOM     28  C9  UNL     1      56.411  54.778  76.148  0.00  0.00    +0.000 A 
ATOM     29  C10 UNL     1      57.327  54.620  75.102  0.00  0.00    +0.000 A 
ENDBRANCH  23  24
ENDBRANCH   4  23
BRANCH  20  30
ATOM     30  C21 UNL     1      60.668  58.266  71.351  0.00  0.00    +0.000 C 
BRANCH  30  31
ATOM     31  C22 UNL     1      61.042  58.072  72.822  0.00  0.00    +0.000 C 
BRANCH  31  32
ATOM     32  C23 UNL     1      62.201  57.123  72.953  0.00  0.00    +0.000 A 
ATOM     33  C24 UNL     1      61.977  55.766  73.244  0.00  0.00    +0.000 A 
ATOM     34  C25 UNL     1      63.056  54.891  73.399  0.00  0.00    +0.000 A 
ATOM     35  C26 UNL     1      64.365  55.365  73.273  0.00  0.00    +0.000 A 
ATOM     36  C27 UNL     1      64.597  56.715  72.998  0.00  0.00    +0.000 A 
ATOM     37  C28 UNL     1      63.520  57.594  72.843  0.00  0.00    +0.000 A 
ENDBRANCH  31  32
ENDBRANCH  30  31
ENDBRANCH  20  30
TORSDOF 5
ENDMDL
MODEL 8
REMARK VINA RESULT:    -7.581      2.588      6.227
REMARK INTER + INTRA:         -10.936
REMARK INTER:                  -9.138
REMARK INTRA:                  -1.798
REMARK UNBOUND:                -1.140
REMARK  Name = CNP0139822_1.pdb
REMARK  5 active torsions:
REMARK  status: ('A' for Active; 'I' for Inactive)
REMARK    1  A    between atoms: C3_4  and  C4_5
REMARK    2  A    between atoms: C4_5  and  C5_6
REMARK    3  A    between atoms: N3_27  and  C21_28
REMARK    4  A    between atoms: C21_28  and  C22_29
REMARK    5  A    between atoms: C22_29  and  C23_30
REMARK                            x       y       z     vdW  Elec       q    Type
REMARK                         _______ _______ _______ _____ _____    ______ ____
ROOT
ATOM      1  O1  UNL     1      56.163  54.725  69.296  0.00  0.00    +0.000 OA
ATOM      2  C1  UNL     1      57.150  55.003  70.027  0.00  0.00    +0.000 C 
ATOM      3  C2  UNL     1      58.149  56.082  69.712  0.00  0.00    +0.000 C 
ATOM      4  C3  UNL     1      59.097  55.827  68.516  0.00  0.00    +0.000 C 
ATOM      5  N1  UNL     1      60.482  55.963  68.992  0.00  0.00    +0.000 NA
ATOM      6  C11 UNL     1      60.470  55.851  70.456  0.00  0.00    +0.000 C 
ATOM      7  C12 UNL     1      61.053  54.513  70.868  0.00  0.00    +0.000 C 
ATOM      8  O2  UNL     1      60.570  53.394  70.553  0.00  0.00    +0.000 OA
ATOM      9  N2  UNL     1      62.233  54.638  71.653  0.00  0.00    +0.000 N 
ATOM     10  C13 UNL     1      62.457  56.030  71.764  0.00  0.00    +0.000 A 
ATOM     11  C14 UNL     1      63.512  56.653  72.438  0.00  0.00    +0.000 A 
ATOM     12 CL1  UNL     1      64.739  55.718  73.275  0.00  0.00    +0.000 Cl
ATOM     13  C15 UNL     1      63.572  58.056  72.429  0.00  0.00    +0.000 A 
ATOM     14  C16 UNL     1      62.591  58.806  71.755  0.00  0.00    +0.000 A 
ATOM     15  C17 UNL     1      61.540  58.160  71.083  0.00  0.00    +0.000 A 
ATOM     16  C18 UNL     1      61.490  56.763  71.103  0.00  0.00    +0.000 A 
ATOM     17  C19 UNL     1      59.037  56.135  70.960  0.00  0.00    +0.000 C 
ATOM     18  C20 UNL     1      58.450  55.096  71.871  0.00  0.00    +0.000 C 
ATOM     19  O3  UNL     1      58.844  54.893  73.050  0.00  0.00    +0.000 OA
ATOM     20  N3  UNL     1      57.371  54.389  71.285  0.00  0.00    +0.000 N 
ATOM     21  H10 UNL     1      60.824  56.911  68.706  0.00  0.00    +0.000 HD
ATOM     22  H11 UNL     1      62.813  53.863  72.045  0.00  0.00    +0.000 HD
ENDROOT
BRANCH   4  23
ATOM     23  C4  UNL     1      58.915  54.468  67.805  0.00  0.00    +0.000 C 
BRANCH  23  24
ATOM     24  C5  UNL     1      58.555  54.651  66.352  0.00  0.00    +0.000 A 
ATOM     25  C6  UNL     1      58.252  53.539  65.549  0.00  0.00    +0.000 A 
ATOM     26  C7  UNL     1      57.954  53.709  64.193  0.00  0.00    +0.000 A 
ATOM     27  C8  UNL     1      57.963  54.988  63.629  0.00  0.00    +0.000 A 
ATOM     28  C9  UNL     1      58.274  56.098  64.419  0.00  0.00    +0.000 A 
ATOM     29  C10 UNL     1      58.573  55.932  65.775  0.00  0.00    +0.000 A 
ENDBRANCH  23  24
ENDBRANCH   4  23
BRANCH  20  30
ATOM     30  C21 UNL     1      56.437  53.516  71.991  0.00  0.00    +0.000 C 
BRANCH  30  31
ATOM     31  C22 UNL     1      56.809  52.048  71.767  0.00  0.00    +0.000 C 
BRANCH  31  32
ATOM     32  C23 UNL     1      56.426  51.610  70.380  0.00  0.00    +0.000 A 
ATOM     33  C24 UNL     1      57.417  51.391  69.407  0.00  0.00    +0.000 A 
ATOM     34  C25 UNL     1      57.058  51.017  68.109  0.00  0.00    +0.000 A 
ATOM     35  C26 UNL     1      55.711  50.866  67.771  0.00  0.00    +0.000 A 
ATOM     36  C27 UNL     1      54.719  51.095  68.728  0.00  0.00    +0.000 A 
ATOM     37  C28 UNL     1      55.073  51.472  70.028  0.00  0.00    +0.000 A 
ENDBRANCH  31  32
ENDBRANCH  30  31
ENDBRANCH  20  30
TORSDOF 5
ENDMDL
MODEL 9
REMARK VINA RESULT:    -7.547      2.434      6.150
REMARK INTER + INTRA:         -10.893
REMARK INTER:                  -8.975
REMARK INTRA:                  -1.918
REMARK UNBOUND:                -1.140
REMARK  Name = CNP0139822_1.pdb
REMARK  5 active torsions:
REMARK  status: ('A' for Active; 'I' for Inactive)
REMARK    1  A    between atoms: C3_4  and  C4_5
REMARK    2  A    between atoms: C4_5  and  C5_6
REMARK    3  A    between atoms: N3_27  and  C21_28
REMARK    4  A    between atoms: C21_28  and  C22_29
REMARK    5  A    between atoms: C22_29  and  C23_30
REMARK                            x       y       z     vdW  Elec       q    Type
REMARK                         _______ _______ _______ _____ _____    ______ ____
ROOT
ATOM      1  O1  UNL     1      60.553  54.651  69.957  0.00  0.00    +0.000 OA
ATOM      2  C1  UNL     1      59.802  54.095  70.802  0.00  0.00    +0.000 C 
ATOM      3  C2  UNL     1      58.401  53.635  70.506  0.00  0.00    +0.000 C 
ATOM      4  C3  UNL     1      57.340  54.737  70.277  0.00  0.00    +0.000 C 
ATOM      5  N1  UNL     1      56.231  54.507  71.216  0.00  0.00    +0.000 NA
ATOM      6  C11 UNL     1      56.719  53.626  72.284  0.00  0.00    +0.000 C 
ATOM      7  C12 UNL     1      56.894  54.423  73.562  0.00  0.00    +0.000 C 
ATOM      8  O2  UNL     1      57.682  55.396  73.696  0.00  0.00    +0.000 OA
ATOM      9  N2  UNL     1      56.057  53.972  74.620  0.00  0.00    +0.000 N 
ATOM     10  C13 UNL     1      55.319  52.896  74.073  0.00  0.00    +0.000 A 
ATOM     11  C14 UNL     1      54.351  52.132  74.731  0.00  0.00    +0.000 A 
ATOM     12 CL1  UNL     1      53.930  52.437  76.407  0.00  0.00    +0.000 Cl
ATOM     13  C15 UNL     1      53.713  51.106  74.015  0.00  0.00    +0.000 A 
ATOM     14  C16 UNL     1      54.048  50.863  72.669  0.00  0.00    +0.000 A 
ATOM     15  C17 UNL     1      55.023  51.644  72.028  0.00  0.00    +0.000 A 
ATOM     16  C18 UNL     1      55.653  52.660  72.753  0.00  0.00    +0.000 A 
ATOM     17  C19 UNL     1      57.982  52.893  71.780  0.00  0.00    +0.000 C 
ATOM     18  C20 UNL     1      59.187  52.985  72.670  0.00  0.00    +0.000 C 
ATOM     19  O3  UNL     1      59.280  52.412  73.788  0.00  0.00    +0.000 OA
ATOM     20  N3  UNL     1      60.237  53.752  72.106  0.00  0.00    +0.000 N 
ATOM     21  H10 UNL     1      55.458  54.038  70.686  0.00  0.00    +0.000 HD
ATOM     22  H11 UNL     1      55.996  54.365  75.586  0.00  0.00    +0.000 HD
ENDROOT
BRANCH   4  23
ATOM     23  C4  UNL     1      57.852  56.188  70.411  0.00  0.00    +0.000 C 
BRANCH  23  24
ATOM     24  C5  UNL     1      58.269  56.750  69.076  0.00  0.00    +0.000 A 
ATOM     25  C6  UNL     1      57.868  56.123  67.884  0.00  0.00    +0.000 A 
ATOM     26  C7  UNL     1      58.286  56.626  66.648  0.00  0.00    +0.000 A 
ATOM     27  C8  UNL     1      59.111  57.753  66.593  0.00  0.00    +0.000 A 
ATOM     28  C9  UNL     1      59.522  58.377  67.774  0.00  0.00    +0.000 A 
ATOM     29  C10 UNL     1      59.107  57.876  69.012  0.00  0.00    +0.000 A 
ENDBRANCH  23  24
ENDBRANCH   4  23
BRANCH  20  30
ATOM     30  C21 UNL     1      61.612  53.811  72.596  0.00  0.00    +0.000 C 
BRANCH  30  31
ATOM     31  C22 UNL     1      61.771  54.958  73.596  0.00  0.00    +0.000 C 
BRANCH  31  32
ATOM     32  C23 UNL     1      61.818  56.281  72.882  0.00  0.00    +0.000 A 
ATOM     33  C24 UNL     1      60.723  57.160  72.944  0.00  0.00    +0.000 A 
ATOM     34  C25 UNL     1      60.754  58.373  72.252  0.00  0.00    +0.000 A 
ATOM     35  C26 UNL     1      61.872  58.715  71.486  0.00  0.00    +0.000 A 
ATOM     36  C27 UNL     1      62.960  57.841  71.408  0.00  0.00    +0.000 A 
ATOM     37  C28 UNL     1      62.933  56.624  72.098  0.00  0.00    +0.000 A 
ENDBRANCH  31  32
ENDBRANCH  30  31
ENDBRANCH  20  30
TORSDOF 5
ENDMDL
MODEL 10
REMARK VINA RESULT:    -7.499      5.359      7.975
REMARK INTER + INTRA:         -10.831
REMARK INTER:                  -9.486
REMARK INTRA:                  -1.345
REMARK UNBOUND:                -1.140
REMARK  Name = CNP0139822_1.pdb
REMARK  5 active torsions:
REMARK  status: ('A' for Active; 'I' for Inactive)
REMARK    1  A    between atoms: C3_4  and  C4_5
REMARK    2  A    between atoms: C4_5  and  C5_6
REMARK    3  A    between atoms: N3_27  and  C21_28
REMARK    4  A    between atoms: C21_28  and  C22_29
REMARK    5  A    between atoms: C22_29  and  C23_30
REMARK                            x       y       z     vdW  Elec       q    Type
REMARK                         _______ _______ _______ _____ _____    ______ ____
ROOT
ATOM      1  O1  UNL     1      63.760  49.516  74.616  0.00  0.00    +0.000 OA
ATOM      2  C1  UNL     1      63.580  50.614  74.026  0.00  0.00    +0.000 C 
ATOM      3  C2  UNL     1      64.197  51.913  74.465  0.00  0.00    +0.000 C 
ATOM      4  C3  UNL     1      63.668  52.525  75.784  0.00  0.00    +0.000 C 
ATOM      5  N1  UNL     1      63.217  53.897  75.504  0.00  0.00    +0.000 NA
ATOM      6  C11 UNL     1      63.024  54.022  74.054  0.00  0.00    +0.000 C 
ATOM      7  C12 UNL     1      61.541  54.070  73.741  0.00  0.00    +0.000 C 
ATOM      8  O2  UNL     1      60.725  53.146  73.998  0.00  0.00    +0.000 OA
ATOM      9  N2  UNL     1      61.140  55.289  73.127  0.00  0.00    +0.000 N 
ATOM     10  C13 UNL     1      62.322  56.061  73.033  0.00  0.00    +0.000 A 
ATOM     11  C14 UNL     1      62.434  57.351  72.506  0.00  0.00    +0.000 A 
ATOM     12 CL1  UNL     1      61.040  58.197  71.857  0.00  0.00    +0.000 Cl
ATOM     13  C15 UNL     1      63.697  57.963  72.508  0.00  0.00    +0.000 A 
ATOM     14  C16 UNL     1      64.815  57.287  73.032  0.00  0.00    +0.000 A 
ATOM     15  C17 UNL     1      64.680  55.992  73.557  0.00  0.00    +0.000 A 
ATOM     16  C18 UNL     1      63.417  55.392  73.546  0.00  0.00    +0.000 A 
ATOM     17  C19 UNL     1      63.815  52.895  73.353  0.00  0.00    +0.000 C 
ATOM     18  C20 UNL     1      63.034  52.060  72.380  0.00  0.00    +0.000 C 
ATOM     19  O3  UNL     1      62.616  52.483  71.269  0.00  0.00    +0.000 OA
ATOM     20  N3  UNL     1      62.848  50.725  72.818  0.00  0.00    +0.000 N 
ATOM     21  H10 UNL     1      63.971  54.551  75.825  0.00  0.00    +0.000 HD
ATOM     22  H11 UNL     1      60.176  55.556  72.827  0.00  0.00    +0.000 HD
ENDROOT
BRANCH   4  23
ATOM     23  C4  UNL     1      62.539  51.731  76.478  0.00  0.00    +0.000 C 
BRANCH  23  24
ATOM     24  C5  UNL     1      62.001  52.472  77.676  0.00  0.00    +0.000 A 
ATOM     25  C6  UNL     1      60.746  53.102  77.618  0.00  0.00    +0.000 A 
ATOM     26  C7  UNL     1      60.266  53.818  78.718  0.00  0.00    +0.000 A 
ATOM     27  C8  UNL     1      61.036  53.916  79.881  0.00  0.00    +0.000 A 
ATOM     28  C9  UNL     1      62.289  53.301  79.943  0.00  0.00    +0.000 A 
ATOM     29  C10 UNL     1      62.773  52.584  78.843  0.00  0.00    +0.000 A 
ENDBRANCH  23  24
ENDBRANCH   4  23
BRANCH  20  30
ATOM     30  C21 UNL     1      62.368  49.615  71.998  0.00  0.00    +0.000 C 
BRANCH  30  31
ATOM     31  C22 UNL     1      63.535  48.711  71.593  0.00  0.00    +0.000 C 
BRANCH  31  32
ATOM     32  C23 UNL     1      64.407  49.396  70.577  0.00  0.00    +0.000 A 
ATOM     33  C24 UNL     1      65.742  49.710  70.884  0.00  0.00    +0.000 A 
ATOM     34  C25 UNL     1      66.541  50.377  69.952  0.00  0.00    +0.000 A 
ATOM     35  C26 UNL     1      66.013  50.742  68.711  0.00  0.00    +0.000 A 
ATOM     36  C27 UNL     1      64.683  50.446  68.402  0.00  0.00    +0.000 A 
ATOM     37  C28 UNL     1      63.879  49.780  69.333  0.00  0.00    +0.000 A 
ENDBRANCH  31  32
ENDBRANCH  30  31
ENDBRANCH  20  30
TORSDOF 5
ENDMDL
