MODEL 1
REMARK VINA RESULT:    -7.716      0.000      0.000
REMARK INTER + INTRA:          -7.716
REMARK INTER:                  -7.716
REMARK INTRA:                   0.000
REMARK UNBOUND:                 0.000
REMARK  Name = CNP0159470_1.pdb
REMARK  0 active torsions:
REMARK  status: ('A' for Active; 'I' for Inactive)
REMARK                            x       y       z     vdW  Elec       q    Type
REMARK                         _______ _______ _______ _____ _____    ______ ____
ROOT
ATOM      1  O1  UNL     1      20.891  39.966  39.616  0.00  0.00    +0.000 OA
ATOM      2  C1  UNL     1      20.507  39.242  38.711  0.00  0.00    +0.000 C 
ATOM      3  C2  UNL     1      19.397  38.258  38.964  0.00  0.00    +0.000 C 
ATOM      4  C3  UNL     1      18.937  37.594  37.657  0.00  0.00    +0.000 C 
ATOM      5  C4  UNL     1      20.127  36.999  36.843  0.00  0.00    +0.000 C 
ATOM      6  C5  UNL     1      19.701  36.479  35.480  0.00  0.00    +0.000 C 
ATOM      7  C6  UNL     1      18.917  37.162  34.638  0.00  0.00    +0.000 C 
ATOM      8  C7  UNL     1      18.455  36.661  33.321  0.00  0.00    +0.000 C 
ATOM      9  O2  UNL     1      18.288  37.514  32.411  0.00  0.00    +0.000 OA
ATOM     10  N1  UNL     1      18.074  35.294  33.050  0.00  0.00    +0.000 N 
ATOM     11  C8  UNL     1      18.337  34.141  33.917  0.00  0.00    +0.000 C 
ATOM     12  C9  UNL     1      17.569  32.893  33.441  0.00  0.00    +0.000 C 
ATOM     13  C10 UNL     1      18.183  31.577  33.963  0.00  0.00    +0.000 C 
ATOM     14  N2  UNL     1      18.116  31.422  35.425  0.00  0.00    +0.000 NA
ATOM     15  C11 UNL     1      16.773  31.052  35.892  0.00  0.00    +0.000 C 
ATOM     16  C12 UNL     1      16.829  30.596  37.354  0.00  0.00    +0.000 C 
ATOM     17  C13 UNL     1      17.621  29.286  37.520  0.00  0.00    +0.000 C 
ATOM     18  C14 UNL     1      17.864  28.948  38.999  0.00  0.00    +0.000 C 
ATOM     19  N3  UNL     1      18.785  29.909  39.602  0.00  0.00    +0.000 N 
ATOM     20  C15 UNL     1      20.174  29.951  39.247  0.00  0.00    +0.000 C 
ATOM     21  O3  UNL     1      20.796  28.877  39.031  0.00  0.00    +0.000 OA
ATOM     22  C16 UNL     1      20.890  31.233  39.094  0.00  0.00    +0.000 C 
ATOM     23  C17 UNL     1      20.240  32.397  38.981  0.00  0.00    +0.000 C 
ATOM     24  C18 UNL     1      20.898  33.674  38.633  0.00  0.00    +0.000 A 
ATOM     25  C19 UNL     1      22.259  33.947  38.927  0.00  0.00    +0.000 A 
ATOM     26  C20 UNL     1      22.837  35.171  38.547  0.00  0.00    +0.000 A 
ATOM     27  C21 UNL     1      22.044  36.100  37.878  0.00  0.00    +0.000 A 
ATOM     28  O4  UNL     1      22.439  37.330  37.398  0.00  0.00    +0.000 OA
ATOM     29  C22 UNL     1      21.359  37.980  36.721  0.00  0.00    +0.000 C 
ATOM     30  C23 UNL     1      21.117  39.366  37.340  0.00  0.00    +0.000 C 
ATOM     31  C24 UNL     1      20.730  35.857  37.608  0.00  0.00    +0.000 A 
ATOM     32  C25 UNL     1      20.127  34.654  37.978  0.00  0.00    +0.000 A 
ATOM     33  H7  UNL     1      17.580  35.131  32.143  0.00  0.00    +0.000 HD
ATOM     34  H14 UNL     1      18.426  32.299  35.903  0.00  0.00    +0.000 HD
ATOM     35  H23 UNL     1      18.400  30.620  40.265  0.00  0.00    +0.000 HD
ENDROOT
TORSDOF 0
ENDMDL
MODEL 2
REMARK VINA RESULT:    -7.613      3.409      5.308
REMARK INTER + INTRA:          -7.613
REMARK INTER:                  -7.613
REMARK INTRA:                   0.000
REMARK UNBOUND:                 0.000
REMARK  Name = CNP0159470_1.pdb
REMARK  0 active torsions:
REMARK  status: ('A' for Active; 'I' for Inactive)
REMARK                            x       y       z     vdW  Elec       q    Type
REMARK                         _______ _______ _______ _____ _____    ______ ____
ROOT
ATOM      1  O1  UNL     1      17.212  41.248  34.372  0.00  0.00    +0.000 OA
ATOM      2  C1  UNL     1      18.320  40.736  34.397  0.00  0.00    +0.000 C 
ATOM      3  C2  UNL     1      18.462  39.255  34.175  0.00  0.00    +0.000 C 
ATOM      4  C3  UNL     1      19.939  38.853  34.050  0.00  0.00    +0.000 C 
ATOM      5  C4  UNL     1      20.804  39.395  35.229  0.00  0.00    +0.000 C 
ATOM      6  C5  UNL     1      22.290  39.135  35.033  0.00  0.00    +0.000 C 
ATOM      7  C6  UNL     1      22.940  39.379  33.889  0.00  0.00    +0.000 C 
ATOM      8  C7  UNL     1      24.377  39.096  33.660  0.00  0.00    +0.000 C 
ATOM      9  O2  UNL     1      24.995  39.869  32.881  0.00  0.00    +0.000 OA
ATOM     10  N1  UNL     1      25.079  37.941  34.168  0.00  0.00    +0.000 N 
ATOM     11  C8  UNL     1      24.587  37.022  35.200  0.00  0.00    +0.000 C 
ATOM     12  C9  UNL     1      25.475  35.769  35.307  0.00  0.00    +0.000 C 
ATOM     13  C10 UNL     1      25.335  35.049  36.665  0.00  0.00    +0.000 C 
ATOM     14  N2  UNL     1      23.998  34.481  36.908  0.00  0.00    +0.000 NA
ATOM     15  C11 UNL     1      23.768  33.240  36.156  0.00  0.00    +0.000 C 
ATOM     16  C12 UNL     1      22.514  32.531  36.679  0.00  0.00    +0.000 C 
ATOM     17  C13 UNL     1      22.695  32.028  38.123  0.00  0.00    +0.000 C 
ATOM     18  C14 UNL     1      21.376  31.517  38.720  0.00  0.00    +0.000 C 
ATOM     19  N3  UNL     1      20.442  32.621  38.926  0.00  0.00    +0.000 N 
ATOM     20  C15 UNL     1      20.663  33.622  39.930  0.00  0.00    +0.000 C 
ATOM     21  O3  UNL     1      21.148  33.291  41.044  0.00  0.00    +0.000 OA
ATOM     22  C16 UNL     1      20.364  35.045  39.676  0.00  0.00    +0.000 C 
ATOM     23  C17 UNL     1      20.166  35.516  38.440  0.00  0.00    +0.000 C 
ATOM     24  C18 UNL     1      20.058  36.955  38.117  0.00  0.00    +0.000 A 
ATOM     25  C19 UNL     1      19.595  37.922  39.046  0.00  0.00    +0.000 A 
ATOM     26  C20 UNL     1      19.540  39.281  38.689  0.00  0.00    +0.000 A 
ATOM     27  C21 UNL     1      19.952  39.650  37.411  0.00  0.00    +0.000 A 
ATOM     28  O4  UNL     1      20.005  40.926  36.896  0.00  0.00    +0.000 OA
ATOM     29  C22 UNL     1      20.530  40.913  35.564  0.00  0.00    +0.000 C 
ATOM     30  C23 UNL     1      19.538  41.596  34.608  0.00  0.00    +0.000 C 
ATOM     31  C24 UNL     1      20.380  38.726  36.504  0.00  0.00    +0.000 A 
ATOM     32  C25 UNL     1      20.441  37.370  36.827  0.00  0.00    +0.000 A 
ATOM     33  H7  UNL     1      26.027  37.768  33.762  0.00  0.00    +0.000 HD
ATOM     34  H14 UNL     1      23.255  35.179  36.673  0.00  0.00    +0.000 HD
ATOM     35  H23 UNL     1      19.625  32.711  38.280  0.00  0.00    +0.000 HD
ENDROOT
TORSDOF 0
ENDMDL
MODEL 3
REMARK VINA RESULT:    -7.438      2.959      7.310
REMARK INTER + INTRA:          -7.438
REMARK INTER:                  -7.438
REMARK INTRA:                   0.000
REMARK UNBOUND:                 0.000
REMARK  Name = CNP0159470_1.pdb
REMARK  0 active torsions:
REMARK  status: ('A' for Active; 'I' for Inactive)
REMARK                            x       y       z     vdW  Elec       q    Type
REMARK                         _______ _______ _______ _____ _____    ______ ____
ROOT
ATOM      1  O1  UNL     1      24.021  34.876  40.343  0.00  0.00    +0.000 OA
ATOM      2  C1  UNL     1      23.205  34.725  39.447  0.00  0.00    +0.000 C 
ATOM      3  C2  UNL     1      23.414  35.412  38.125  0.00  0.00    +0.000 C 
ATOM      4  C3  UNL     1      22.390  34.936  37.085  0.00  0.00    +0.000 C 
ATOM      5  C4  UNL     1      20.924  35.025  37.611  0.00  0.00    +0.000 C 
ATOM      6  C5  UNL     1      19.918  34.412  36.650  0.00  0.00    +0.000 C 
ATOM      7  C6  UNL     1      20.083  33.219  36.066  0.00  0.00    +0.000 C 
ATOM      8  C7  UNL     1      19.138  32.618  35.095  0.00  0.00    +0.000 C 
ATOM      9  O2  UNL     1      19.038  31.363  35.095  0.00  0.00    +0.000 OA
ATOM     10  N1  UNL     1      18.423  33.356  34.080  0.00  0.00    +0.000 N 
ATOM     11  C8  UNL     1      18.287  34.814  34.014  0.00  0.00    +0.000 C 
ATOM     12  C9  UNL     1      17.684  35.263  32.669  0.00  0.00    +0.000 C 
ATOM     13  C10 UNL     1      17.050  36.668  32.736  0.00  0.00    +0.000 C 
ATOM     14  N2  UNL     1      18.014  37.749  32.999  0.00  0.00    +0.000 NA
ATOM     15  C11 UNL     1      18.809  38.097  31.813  0.00  0.00    +0.000 C 
ATOM     16  C12 UNL     1      19.554  39.416  32.045  0.00  0.00    +0.000 C 
ATOM     17  C13 UNL     1      18.589  40.609  32.171  0.00  0.00    +0.000 C 
ATOM     18  C14 UNL     1      19.315  41.886  32.620  0.00  0.00    +0.000 C 
ATOM     19  N3  UNL     1      19.780  41.758  34.000  0.00  0.00    +0.000 N 
ATOM     20  C15 UNL     1      18.867  41.729  35.106  0.00  0.00    +0.000 C 
ATOM     21  O3  UNL     1      17.846  42.466  35.092  0.00  0.00    +0.000 OA
ATOM     22  C16 UNL     1      19.079  40.825  36.254  0.00  0.00    +0.000 C 
ATOM     23  C17 UNL     1      19.934  39.798  36.197  0.00  0.00    +0.000 C 
ATOM     24  C18 UNL     1      20.036  38.757  37.242  0.00  0.00    +0.000 A 
ATOM     25  C19 UNL     1      19.708  38.992  38.601  0.00  0.00    +0.000 A 
ATOM     26  C20 UNL     1      19.801  37.954  39.545  0.00  0.00    +0.000 A 
ATOM     27  C21 UNL     1      20.218  36.698  39.112  0.00  0.00    +0.000 A 
ATOM     28  O4  UNL     1      20.335  35.558  39.876  0.00  0.00    +0.000 OA
ATOM     29  C22 UNL     1      20.743  34.448  39.070  0.00  0.00    +0.000 C 
ATOM     30  C23 UNL     1      22.019  33.822  39.657  0.00  0.00    +0.000 C 
ATOM     31  C24 UNL     1      20.556  36.466  37.812  0.00  0.00    +0.000 A 
ATOM     32  C25 UNL     1      20.479  37.477  36.854  0.00  0.00    +0.000 A 
ATOM     33  H7  UNL     1      17.955  32.780  33.344  0.00  0.00    +0.000 HD
ATOM     34  H14 UNL     1      18.651  37.490  33.787  0.00  0.00    +0.000 HD
ATOM     35  H23 UNL     1      20.802  41.622  34.170  0.00  0.00    +0.000 HD
ENDROOT
TORSDOF 0
ENDMDL
MODEL 4
REMARK VINA RESULT:    -7.067      2.943      6.104
REMARK INTER + INTRA:          -7.067
REMARK INTER:                  -7.067
REMARK INTRA:                   0.000
REMARK UNBOUND:                 0.000
REMARK  Name = CNP0159470_1.pdb
REMARK  0 active torsions:
REMARK  status: ('A' for Active; 'I' for Inactive)
REMARK                            x       y       z     vdW  Elec       q    Type
REMARK                         _______ _______ _______ _____ _____    ______ ____
ROOT
ATOM      1  O1  UNL     1      19.045  41.403  30.899  0.00  0.00    +0.000 OA
ATOM      2  C1  UNL     1      19.208  40.996  32.039  0.00  0.00    +0.000 C 
ATOM      3  C2  UNL     1      20.240  39.936  32.311  0.00  0.00    +0.000 C 
ATOM      4  C3  UNL     1      20.420  39.713  33.820  0.00  0.00    +0.000 C 
ATOM      5  C4  UNL     1      19.064  39.468  34.550  0.00  0.00    +0.000 C 
ATOM      6  C5  UNL     1      19.216  39.401  36.061  0.00  0.00    +0.000 C 
ATOM      7  C6  UNL     1      19.923  40.286  36.774  0.00  0.00    +0.000 C 
ATOM      8  C7  UNL     1      20.120  40.220  38.242  0.00  0.00    +0.000 C 
ATOM      9  O2  UNL     1      20.226  41.315  38.855  0.00  0.00    +0.000 OA
ATOM     10  N1  UNL     1      20.315  39.000  38.991  0.00  0.00    +0.000 N 
ATOM     11  C8  UNL     1      20.078  37.641  38.496  0.00  0.00    +0.000 C 
ATOM     12  C9  UNL     1      20.633  36.583  39.468  0.00  0.00    +0.000 C 
ATOM     13  C10 UNL     1      19.980  35.197  39.282  0.00  0.00    +0.000 C 
ATOM     14  N2  UNL     1      20.260  34.572  37.979  0.00  0.00    +0.000 NA
ATOM     15  C11 UNL     1      21.616  34.012  37.902  0.00  0.00    +0.000 C 
ATOM     16  C12 UNL     1      21.745  33.108  36.671  0.00  0.00    +0.000 C 
ATOM     17  C13 UNL     1      20.862  31.851  36.782  0.00  0.00    +0.000 C 
ATOM     18  C14 UNL     1      20.822  31.062  35.465  0.00  0.00    +0.000 C 
ATOM     19  N3  UNL     1      20.108  31.814  34.436  0.00  0.00    +0.000 N 
ATOM     20  C15 UNL     1      18.691  32.031  34.503  0.00  0.00    +0.000 C 
ATOM     21  O3  UNL     1      17.939  31.114  34.927  0.00  0.00    +0.000 OA
ATOM     22  C16 UNL     1      18.092  33.323  34.115  0.00  0.00    +0.000 C 
ATOM     23  C17 UNL     1      18.829  34.430  33.974  0.00  0.00    +0.000 C 
ATOM     24  C18 UNL     1      18.255  35.779  33.780  0.00  0.00    +0.000 A 
ATOM     25  C19 UNL     1      16.992  36.001  33.176  0.00  0.00    +0.000 A 
ATOM     26  C20 UNL     1      16.487  37.307  33.043  0.00  0.00    +0.000 A 
ATOM     27  C21 UNL     1      17.253  38.367  33.519  0.00  0.00    +0.000 A 
ATOM     28  O4  UNL     1      16.912  39.702  33.512  0.00  0.00    +0.000 OA
ATOM     29  C22 UNL     1      17.933  40.489  34.135  0.00  0.00    +0.000 C 
ATOM     30  C23 UNL     1      18.405  41.586  33.168  0.00  0.00    +0.000 C 
ATOM     31  C24 UNL     1      18.478  38.167  34.084  0.00  0.00    +0.000 A 
ATOM     32  C25 UNL     1      19.007  36.884  34.225  0.00  0.00    +0.000 A 
ATOM     33  H7  UNL     1      20.642  39.119  39.977  0.00  0.00    +0.000 HD
ATOM     34  H14 UNL     1      20.118  35.259  37.204  0.00  0.00    +0.000 HD
ATOM     35  H23 UNL     1      20.661  32.254  33.665  0.00  0.00    +0.000 HD
ENDROOT
TORSDOF 0
ENDMDL
MODEL 5
REMARK VINA RESULT:    -6.966      1.753      6.270
REMARK INTER + INTRA:          -6.966
REMARK INTER:                  -6.966
REMARK INTRA:                   0.000
REMARK UNBOUND:                 0.000
REMARK  Name = CNP0159470_1.pdb
REMARK  0 active torsions:
REMARK  status: ('A' for Active; 'I' for Inactive)
REMARK                            x       y       z     vdW  Elec       q    Type
REMARK                         _______ _______ _______ _____ _____    ______ ____
ROOT
ATOM      1  O1  UNL     1      24.927  35.552  39.878  0.00  0.00    +0.000 OA
ATOM      2  C1  UNL     1      24.040  34.765  39.584  0.00  0.00    +0.000 C 
ATOM      3  C2  UNL     1      23.820  34.394  38.143  0.00  0.00    +0.000 C 
ATOM      4  C3  UNL     1      22.800  33.253  38.014  0.00  0.00    +0.000 C 
ATOM      5  C4  UNL     1      21.481  33.546  38.793  0.00  0.00    +0.000 C 
ATOM      6  C5  UNL     1      20.529  32.360  38.799  0.00  0.00    +0.000 C 
ATOM      7  C6  UNL     1      20.910  31.106  39.074  0.00  0.00    +0.000 C 
ATOM      8  C7  UNL     1      20.011  29.927  39.047  0.00  0.00    +0.000 C 
ATOM      9  O2  UNL     1      20.260  29.000  39.861  0.00  0.00    +0.000 OA
ATOM     10  N1  UNL     1      18.956  29.721  38.082  0.00  0.00    +0.000 N 
ATOM     11  C8  UNL     1      18.417  30.732  37.168  0.00  0.00    +0.000 C 
ATOM     12  C9  UNL     1      17.491  30.101  36.112  0.00  0.00    +0.000 C 
ATOM     13  C10 UNL     1      16.518  31.120  35.482  0.00  0.00    +0.000 C 
ATOM     14  N2  UNL     1      17.180  32.173  34.695  0.00  0.00    +0.000 NA
ATOM     15  C11 UNL     1      17.631  31.697  33.381  0.00  0.00    +0.000 C 
ATOM     16  C12 UNL     1      18.016  32.885  32.492  0.00  0.00    +0.000 C 
ATOM     17  C13 UNL     1      16.799  33.760  32.140  0.00  0.00    +0.000 C 
ATOM     18  C14 UNL     1      17.214  35.062  31.439  0.00  0.00    +0.000 C 
ATOM     19  N3  UNL     1      17.929  35.939  32.363  0.00  0.00    +0.000 N 
ATOM     20  C15 UNL     1      17.267  36.586  33.459  0.00  0.00    +0.000 C 
ATOM     21  O3  UNL     1      16.097  37.027  33.307  0.00  0.00    +0.000 OA
ATOM     22  C16 UNL     1      17.913  36.717  34.779  0.00  0.00    +0.000 C 
ATOM     23  C17 UNL     1      18.993  36.001  35.112  0.00  0.00    +0.000 C 
ATOM     24  C18 UNL     1      19.557  35.953  36.478  0.00  0.00    +0.000 A 
ATOM     25  C19 UNL     1      19.418  37.014  37.409  0.00  0.00    +0.000 A 
ATOM     26  C20 UNL     1      19.954  36.899  38.704  0.00  0.00    +0.000 A 
ATOM     27  C21 UNL     1      20.617  35.723  39.046  0.00  0.00    +0.000 A 
ATOM     28  O4  UNL     1      21.172  35.414  40.268  0.00  0.00    +0.000 OA
ATOM     29  C22 UNL     1      21.721  34.092  40.255  0.00  0.00    +0.000 C 
ATOM     30  C23 UNL     1      23.201  34.141  40.668  0.00  0.00    +0.000 C 
ATOM     31  C24 UNL     1      20.773  34.704  38.153  0.00  0.00    +0.000 A 
ATOM     32  C25 UNL     1      20.257  34.792  36.860  0.00  0.00    +0.000 A 
ATOM     33  H7  UNL     1      18.542  28.761  38.059  0.00  0.00    +0.000 HD
ATOM     34  H14 UNL     1      17.991  32.572  35.223  0.00  0.00    +0.000 HD
ATOM     35  H23 UNL     1      18.964  36.045  32.251  0.00  0.00    +0.000 HD
ENDROOT
TORSDOF 0
ENDMDL
MODEL 6
REMARK VINA RESULT:    -6.762      5.489     10.446
REMARK INTER + INTRA:          -6.762
REMARK INTER:                  -6.762
REMARK INTRA:                   0.000
REMARK UNBOUND:                 0.000
REMARK  Name = CNP0159470_1.pdb
REMARK  0 active torsions:
REMARK  status: ('A' for Active; 'I' for Inactive)
REMARK                            x       y       z     vdW  Elec       q    Type
REMARK                         _______ _______ _______ _____ _____    ______ ____
ROOT
ATOM      1  O1  UNL     1      18.642  37.393  38.822  0.00  0.00    +0.000 OA
ATOM      2  C1  UNL     1      19.437  37.766  37.973  0.00  0.00    +0.000 C 
ATOM      3  C2  UNL     1      19.760  39.230  37.848  0.00  0.00    +0.000 C 
ATOM      4  C3  UNL     1      20.917  39.459  36.865  0.00  0.00    +0.000 C 
ATOM      5  C4  UNL     1      20.682  38.750  35.495  0.00  0.00    +0.000 C 
ATOM      6  C5  UNL     1      21.888  38.842  34.574  0.00  0.00    +0.000 C 
ATOM      7  C6  UNL     1      23.142  38.589  34.967  0.00  0.00    +0.000 C 
ATOM      8  C7  UNL     1      24.338  38.710  34.100  0.00  0.00    +0.000 C 
ATOM      9  O2  UNL     1      25.288  37.915  34.322  0.00  0.00    +0.000 OA
ATOM     10  N1  UNL     1      24.533  39.742  33.108  0.00  0.00    +0.000 N 
ATOM     11  C8  UNL     1      23.501  40.651  32.600  0.00  0.00    +0.000 C 
ATOM     12  C9  UNL     1      24.115  41.782  31.753  0.00  0.00    +0.000 C 
ATOM     13  C10 UNL     1      23.095  42.434  30.795  0.00  0.00    +0.000 C 
ATOM     14  N2  UNL     1      22.000  43.142  31.477  0.00  0.00    +0.000 NA
ATOM     15  C11 UNL     1      22.419  44.443  32.016  0.00  0.00    +0.000 C 
ATOM     16  C12 UNL     1      21.192  45.266  32.424  0.00  0.00    +0.000 C 
ATOM     17  C13 UNL     1      20.331  45.660  31.210  0.00  0.00    +0.000 C 
ATOM     18  C14 UNL     1      18.997  46.290  31.634  0.00  0.00    +0.000 C 
ATOM     19  N3  UNL     1      18.137  45.295  32.273  0.00  0.00    +0.000 N 
ATOM     20  C15 UNL     1      17.545  44.219  31.531  0.00  0.00    +0.000 C 
ATOM     21  O3  UNL     1      17.125  44.425  30.362  0.00  0.00    +0.000 OA
ATOM     22  C16 UNL     1      17.447  42.859  32.096  0.00  0.00    +0.000 C 
ATOM     23  C17 UNL     1      18.152  42.487  33.171  0.00  0.00    +0.000 C 
ATOM     24  C18 UNL     1      18.236  41.092  33.654  0.00  0.00    +0.000 A 
ATOM     25  C19 UNL     1      17.212  40.135  33.436  0.00  0.00    +0.000 A 
ATOM     26  C20 UNL     1      17.362  38.815  33.897  0.00  0.00    +0.000 A 
ATOM     27  C21 UNL     1      18.534  38.475  34.566  0.00  0.00    +0.000 A 
ATOM     28  O4  UNL     1      18.875  37.233  35.055  0.00  0.00    +0.000 OA
ATOM     29  C22 UNL     1      20.183  37.259  35.636  0.00  0.00    +0.000 C 
ATOM     30  C23 UNL     1      20.117  36.757  37.088  0.00  0.00    +0.000 C 
ATOM     31  C24 UNL     1      19.517  39.391  34.799  0.00  0.00    +0.000 A 
ATOM     32  C25 UNL     1      19.394  40.709  34.358  0.00  0.00    +0.000 A 
ATOM     33  H7  UNL     1      25.500  39.823  32.720  0.00  0.00    +0.000 HD
ATOM     34  H14 UNL     1      21.603  42.553  32.246  0.00  0.00    +0.000 HD
ATOM     35  H23 UNL     1      18.006  45.341  33.309  0.00  0.00    +0.000 HD
ENDROOT
TORSDOF 0
ENDMDL
MODEL 7
REMARK VINA RESULT:    -6.575      5.021      9.224
REMARK INTER + INTRA:          -6.575
REMARK INTER:                  -6.575
REMARK INTRA:                   0.000
REMARK UNBOUND:                 0.000
REMARK  Name = CNP0159470_1.pdb
REMARK  0 active torsions:
REMARK  status: ('A' for Active; 'I' for Inactive)
REMARK                            x       y       z     vdW  Elec       q    Type
REMARK                         _______ _______ _______ _____ _____    ______ ____
ROOT
ATOM      1  O1  UNL     1      19.721  35.954  38.920  0.00  0.00    +0.000 OA
ATOM      2  C1  UNL     1      20.153  36.617  37.990  0.00  0.00    +0.000 C 
ATOM      3  C2  UNL     1      19.689  38.036  37.808  0.00  0.00    +0.000 C 
ATOM      4  C3  UNL     1      20.495  38.746  36.710  0.00  0.00    +0.000 C 
ATOM      5  C4  UNL     1      20.539  37.927  35.383  0.00  0.00    +0.000 C 
ATOM      6  C5  UNL     1      21.460  38.546  34.344  0.00  0.00    +0.000 C 
ATOM      7  C6  UNL     1      22.699  38.974  34.613  0.00  0.00    +0.000 C 
ATOM      8  C7  UNL     1      23.602  39.617  33.628  0.00  0.00    +0.000 C 
ATOM      9  O2  UNL     1      24.837  39.415  33.767  0.00  0.00    +0.000 OA
ATOM     10  N1  UNL     1      23.175  40.543  32.605  0.00  0.00    +0.000 N 
ATOM     11  C8  UNL     1      21.790  40.785  32.189  0.00  0.00    +0.000 C 
ATOM     12  C9  UNL     1      21.687  42.014  31.265  0.00  0.00    +0.000 C 
ATOM     13  C10 UNL     1      20.406  42.010  30.404  0.00  0.00    +0.000 C 
ATOM     14  N2  UNL     1      19.161  42.123  31.181  0.00  0.00    +0.000 NA
ATOM     15  C11 UNL     1      18.914  43.492  31.653  0.00  0.00    +0.000 C 
ATOM     16  C12 UNL     1      17.476  43.622  32.169  0.00  0.00    +0.000 C 
ATOM     17  C13 UNL     1      16.441  43.457  31.040  0.00  0.00    +0.000 C 
ATOM     18  C14 UNL     1      15.009  43.366  31.586  0.00  0.00    +0.000 C 
ATOM     19  N3  UNL     1      14.816  42.120  32.324  0.00  0.00    +0.000 N 
ATOM     20  C15 UNL     1      14.786  40.847  31.664  0.00  0.00    +0.000 C 
ATOM     21  O3  UNL     1      14.228  40.740  30.540  0.00  0.00    +0.000 OA
ATOM     22  C16 UNL     1      15.426  39.657  32.258  0.00  0.00    +0.000 C 
ATOM     23  C17 UNL     1      16.304  39.755  33.263  0.00  0.00    +0.000 C 
ATOM     24  C18 UNL     1      17.114  38.620  33.758  0.00  0.00    +0.000 A 
ATOM     25  C19 UNL     1      16.692  37.269  33.660  0.00  0.00    +0.000 A 
ATOM     26  C20 UNL     1      17.518  36.231  34.126  0.00  0.00    +0.000 A 
ATOM     27  C21 UNL     1      18.752  36.562  34.679  0.00  0.00    +0.000 A 
ATOM     28  O4  UNL     1      19.706  35.688  35.152  0.00  0.00    +0.000 OA
ATOM     29  C22 UNL     1      20.866  36.398  35.598  0.00  0.00    +0.000 C 
ATOM     30  C23 UNL     1      21.175  36.024  37.057  0.00  0.00    +0.000 C 
ATOM     31  C24 UNL     1      19.159  37.858  34.797  0.00  0.00    +0.000 A 
ATOM     32  C25 UNL     1      18.359  38.910  34.349  0.00  0.00    +0.000 A 
ATOM     33  H7  UNL     1      23.938  41.068  32.120  0.00  0.00    +0.000 HD
ATOM     34  H14 UNL     1      19.174  41.466  31.995  0.00  0.00    +0.000 HD
ATOM     35  H23 UNL     1      14.761  42.162  33.367  0.00  0.00    +0.000 HD
ENDROOT
TORSDOF 0
ENDMDL
MODEL 8
REMARK VINA RESULT:    -6.488      3.848      5.838
REMARK INTER + INTRA:          -6.488
REMARK INTER:                  -6.488
REMARK INTRA:                   0.000
REMARK UNBOUND:                 0.000
REMARK  Name = CNP0159470_1.pdb
REMARK  0 active torsions:
REMARK  status: ('A' for Active; 'I' for Inactive)
REMARK                            x       y       z     vdW  Elec       q    Type
REMARK                         _______ _______ _______ _____ _____    ______ ____
ROOT
ATOM      1  O1  UNL     1      16.194  36.747  33.757  0.00  0.00    +0.000 OA
ATOM      2  C1  UNL     1      17.414  36.786  33.805  0.00  0.00    +0.000 C 
ATOM      3  C2  UNL     1      18.186  35.541  34.144  0.00  0.00    +0.000 C 
ATOM      4  C3  UNL     1      19.695  35.758  33.958  0.00  0.00    +0.000 C 
ATOM      5  C4  UNL     1      20.208  37.033  34.696  0.00  0.00    +0.000 C 
ATOM      6  C5  UNL     1      21.665  37.340  34.390  0.00  0.00    +0.000 C 
ATOM      7  C6  UNL     1      22.180  37.334  33.154  0.00  0.00    +0.000 C 
ATOM      8  C7  UNL     1      23.605  37.591  32.834  0.00  0.00    +0.000 C 
ATOM      9  O2  UNL     1      23.852  38.155  31.736  0.00  0.00    +0.000 OA
ATOM     10  N1  UNL     1      24.721  37.136  33.631  0.00  0.00    +0.000 N 
ATOM     11  C8  UNL     1      24.643  36.608  34.996  0.00  0.00    +0.000 C 
ATOM     12  C9  UNL     1      25.981  35.985  35.436  0.00  0.00    +0.000 C 
ATOM     13  C10 UNL     1      26.125  35.894  36.970  0.00  0.00    +0.000 C 
ATOM     14  N2  UNL     1      25.157  34.989  37.610  0.00  0.00    +0.000 NA
ATOM     15  C11 UNL     1      25.506  33.573  37.432  0.00  0.00    +0.000 C 
ATOM     16  C12 UNL     1      24.665  32.699  38.370  0.00  0.00    +0.000 C 
ATOM     17  C13 UNL     1      25.003  32.951  39.851  0.00  0.00    +0.000 C 
ATOM     18  C14 UNL     1      24.016  32.244  40.791  0.00  0.00    +0.000 C 
ATOM     19  N3  UNL     1      22.691  32.855  40.701  0.00  0.00    +0.000 N 
ATOM     20  C15 UNL     1      22.430  34.173  41.202  0.00  0.00    +0.000 C 
ATOM     21  O3  UNL     1      22.978  34.554  42.271  0.00  0.00    +0.000 OA
ATOM     22  C16 UNL     1      21.555  35.113  40.475  0.00  0.00    +0.000 C 
ATOM     23  C17 UNL     1      21.210  34.913  39.198  0.00  0.00    +0.000 C 
ATOM     24  C18 UNL     1      20.502  35.916  38.372  0.00  0.00    +0.000 A 
ATOM     25  C19 UNL     1      19.640  36.899  38.922  0.00  0.00    +0.000 A 
ATOM     26  C20 UNL     1      19.016  37.843  38.087  0.00  0.00    +0.000 A 
ATOM     27  C21 UNL     1      19.266  37.788  36.719  0.00  0.00    +0.000 A 
ATOM     28  O4  UNL     1      18.778  38.644  35.755  0.00  0.00    +0.000 OA
ATOM     29  C22 UNL     1      19.297  38.302  34.466  0.00  0.00    +0.000 C 
ATOM     30  C23 UNL     1      18.136  38.068  33.485  0.00  0.00    +0.000 C 
ATOM     31  C24 UNL     1      20.076  36.835  36.178  0.00  0.00    +0.000 A 
ATOM     32  C25 UNL     1      20.706  35.882  36.979  0.00  0.00    +0.000 A 
ATOM     33  H7  UNL     1      25.662  37.212  33.181  0.00  0.00    +0.000 HD
ATOM     34  H14 UNL     1      24.193  35.163  37.245  0.00  0.00    +0.000 HD
ATOM     35  H23 UNL     1      21.935  32.333  40.201  0.00  0.00    +0.000 HD
ENDROOT
TORSDOF 0
ENDMDL
MODEL 9
REMARK VINA RESULT:    -6.448      3.567      8.029
REMARK INTER + INTRA:          -6.448
REMARK INTER:                  -6.448
REMARK INTRA:                   0.000
REMARK UNBOUND:                 0.000
REMARK  Name = CNP0159470_1.pdb
REMARK  0 active torsions:
REMARK  status: ('A' for Active; 'I' for Inactive)
REMARK                            x       y       z     vdW  Elec       q    Type
REMARK                         _______ _______ _______ _____ _____    ______ ____
ROOT
ATOM      1  O1  UNL     1      23.632  34.900  37.661  0.00  0.00    +0.000 OA
ATOM      2  C1  UNL     1      22.672  34.923  36.906  0.00  0.00    +0.000 C 
ATOM      3  C2  UNL     1      22.715  35.783  35.673  0.00  0.00    +0.000 C 
ATOM      4  C3  UNL     1      21.502  35.516  34.770  0.00  0.00    +0.000 C 
ATOM      5  C4  UNL     1      20.152  35.603  35.547  0.00  0.00    +0.000 C 
ATOM      6  C5  UNL     1      18.961  35.189  34.698  0.00  0.00    +0.000 C 
ATOM      7  C6  UNL     1      18.938  34.086  33.940  0.00  0.00    +0.000 C 
ATOM      8  C7  UNL     1      17.805  33.682  33.074  0.00  0.00    +0.000 C 
ATOM      9  O2  UNL     1      17.613  32.447  32.923  0.00  0.00    +0.000 OA
ATOM     10  N1  UNL     1      16.992  34.595  32.305  0.00  0.00    +0.000 N 
ATOM     11  C8  UNL     1      16.957  36.053  32.460  0.00  0.00    +0.000 C 
ATOM     12  C9  UNL     1      16.179  36.722  31.312  0.00  0.00    +0.000 C 
ATOM     13  C10 UNL     1      15.671  38.134  31.675  0.00  0.00    +0.000 C 
ATOM     14  N2  UNL     1      16.744  39.114  31.911  0.00  0.00    +0.000 NA
ATOM     15  C11 UNL     1      17.359  39.588  30.664  0.00  0.00    +0.000 C 
ATOM     16  C12 UNL     1      18.229  40.820  30.940  0.00  0.00    +0.000 C 
ATOM     17  C13 UNL     1      17.390  42.031  31.389  0.00  0.00    +0.000 C 
ATOM     18  C14 UNL     1      18.272  43.190  31.874  0.00  0.00    +0.000 C 
ATOM     19  N3  UNL     1      18.945  42.839  33.123  0.00  0.00    +0.000 N 
ATOM     20  C15 UNL     1      18.225  42.696  34.356  0.00  0.00    +0.000 C 
ATOM     21  O3  UNL     1      17.273  43.479  34.616  0.00  0.00    +0.000 OA
ATOM     22  C16 UNL     1      18.552  41.626  35.318  0.00  0.00    +0.000 C 
ATOM     23  C17 UNL     1      19.306  40.575  34.978  0.00  0.00    +0.000 C 
ATOM     24  C18 UNL     1      19.499  39.389  35.840  0.00  0.00    +0.000 A 
ATOM     25  C19 UNL     1      19.415  39.442  37.255  0.00  0.00    +0.000 A 
ATOM     26  C20 UNL     1      19.582  38.274  38.021  0.00  0.00    +0.000 A 
ATOM     27  C21 UNL     1      19.828  37.075  37.358  0.00  0.00    +0.000 A 
ATOM     28  O4  UNL     1      19.981  35.831  37.930  0.00  0.00    +0.000 OA
ATOM     29  C22 UNL     1      20.168  34.830  36.924  0.00  0.00    +0.000 C 
ATOM     30  C23 UNL     1      21.472  34.061  37.193  0.00  0.00    +0.000 C 
ATOM     31  C24 UNL     1      19.931  37.016  36.000  0.00  0.00    +0.000 A 
ATOM     32  C25 UNL     1      19.775  38.159  35.214  0.00  0.00    +0.000 A 
ATOM     33  H7  UNL     1      16.368  34.157  31.589  0.00  0.00    +0.000 HD
ATOM     34  H14 UNL     1      17.479  38.711  32.536  0.00  0.00    +0.000 HD
ATOM     35  H23 UNL     1      19.968  42.627  33.096  0.00  0.00    +0.000 HD
ENDROOT
TORSDOF 0
ENDMDL
MODEL 10
REMARK VINA RESULT:    -6.405      5.146     10.038
REMARK INTER + INTRA:          -6.405
REMARK INTER:                  -6.405
REMARK INTRA:                   0.000
REMARK UNBOUND:                 0.000
REMARK  Name = CNP0159470_1.pdb
REMARK  0 active torsions:
REMARK  status: ('A' for Active; 'I' for Inactive)
REMARK                            x       y       z     vdW  Elec       q    Type
REMARK                         _______ _______ _______ _____ _____    ______ ____
ROOT
ATOM      1  O1  UNL     1      18.646  37.748  39.628  0.00  0.00    +0.000 OA
ATOM      2  C1  UNL     1      19.577  37.771  38.838  0.00  0.00    +0.000 C 
ATOM      3  C2  UNL     1      20.394  39.026  38.686  0.00  0.00    +0.000 C 
ATOM      4  C3  UNL     1      21.624  38.781  37.799  0.00  0.00    +0.000 C 
ATOM      5  C4  UNL     1      21.253  38.107  36.442  0.00  0.00    +0.000 C 
ATOM      6  C5  UNL     1      22.477  37.721  35.627  0.00  0.00    +0.000 C 
ATOM      7  C6  UNL     1      23.536  37.082  36.138  0.00  0.00    +0.000 C 
ATOM      8  C7  UNL     1      24.758  36.731  35.374  0.00  0.00    +0.000 C 
ATOM      9  O2  UNL     1      25.358  35.676  35.708  0.00  0.00    +0.000 OA
ATOM     10  N1  UNL     1      25.365  37.567  34.365  0.00  0.00    +0.000 N 
ATOM     11  C8  UNL     1      24.747  38.738  33.734  0.00  0.00    +0.000 C 
ATOM     12  C9  UNL     1      25.770  39.533  32.901  0.00  0.00    +0.000 C 
ATOM     13  C10 UNL     1      25.107  40.429  31.834  0.00  0.00    +0.000 C 
ATOM     14  N2  UNL     1      24.279  41.512  32.390  0.00  0.00    +0.000 NA
ATOM     15  C11 UNL     1      25.083  42.625  32.914  0.00  0.00    +0.000 C 
ATOM     16  C12 UNL     1      24.190  43.842  33.181  0.00  0.00    +0.000 C 
ATOM     17  C13 UNL     1      23.604  44.424  31.882  0.00  0.00    +0.000 C 
ATOM     18  C14 UNL     1      22.542  45.497  32.164  0.00  0.00    +0.000 C 
ATOM     19  N3  UNL     1      21.351  44.899  32.763  0.00  0.00    +0.000 N 
ATOM     20  C15 UNL     1      20.477  44.043  32.014  0.00  0.00    +0.000 C 
ATOM     21  O3  UNL     1      20.234  44.302  30.806  0.00  0.00    +0.000 OA
ATOM     22  C16 UNL     1      19.877  42.838  32.619  0.00  0.00    +0.000 C 
ATOM     23  C17 UNL     1      20.334  42.320  33.765  0.00  0.00    +0.000 C 
ATOM     24  C18 UNL     1      19.898  41.015  34.307  0.00  0.00    +0.000 A 
ATOM     25  C19 UNL     1      18.624  40.452  34.036  0.00  0.00    +0.000 A 
ATOM     26  C20 UNL     1      18.278  39.194  34.559  0.00  0.00    +0.000 A 
ATOM     27  C21 UNL     1      19.212  38.519  35.341  0.00  0.00    +0.000 A 
ATOM     28  O4  UNL     1      19.068  37.270  35.905  0.00  0.00    +0.000 OA
ATOM     29  C22 UNL     1      20.262  36.887  36.596  0.00  0.00    +0.000 C 
ATOM     30  C23 UNL     1      19.927  36.534  38.054  0.00  0.00    +0.000 C 
ATOM     31  C24 UNL     1      20.431  39.059  35.623  0.00  0.00    +0.000 A 
ATOM     32  C25 UNL     1      20.802  40.308  35.123  0.00  0.00    +0.000 A 
ATOM     33  H7  UNL     1      26.325  37.288  34.059  0.00  0.00    +0.000 HD
ATOM     34  H14 UNL     1      23.651  41.146  33.143  0.00  0.00    +0.000 HD
ATOM     35  H23 UNL     1      21.172  45.056  33.781  0.00  0.00    +0.000 HD
ENDROOT
TORSDOF 0
ENDMDL
