MODEL 1
REMARK VINA RESULT:    -9.133      0.000      0.000
REMARK INTER + INTRA:         -11.874
REMARK INTER:                 -10.200
REMARK INTRA:                  -1.674
REMARK UNBOUND:                -1.674
REMARK  Name = CNP0357158_1.pdb
REMARK  3 active torsions:
REMARK  status: ('A' for Active; 'I' for Inactive)
REMARK    1  A    between atoms: C1_1  and  C2_2
REMARK    2  A    between atoms: C14_18  and  C15_19
REMARK    3  A    between atoms: C15_19  and  C16_20
REMARK                            x       y       z     vdW  Elec       q    Type
REMARK                         _______ _______ _______ _____ _____    ______ ____
ROOT
ATOM      1  C1  UNL     1      57.393  57.250  73.093  0.00  0.00    +0.000 C 
ATOM      2  C2  UNL     1      57.787  56.175  72.059  0.00  0.00    +0.000 C 
ATOM      3  N1  UNL     1      56.777  56.121  70.981  0.00  0.00    +0.000 N 
ATOM      4  C3  UNL     1      56.981  55.065  70.034  0.00  0.00    +0.000 C 
ATOM      5  O1  UNL     1      56.205  54.870  69.063  0.00  0.00    +0.000 OA
ATOM      6  C4  UNL     1      58.199  54.228  70.305  0.00  0.00    +0.000 C 
ATOM      7  C5  UNL     1      59.377  55.237  70.241  0.00  0.00    +0.000 C 
ATOM      8  C6  UNL     1      59.214  56.350  71.382  0.00  0.00    +0.000 C 
ATOM      9  C7  UNL     1      59.415  57.721  70.772  0.00  0.00    +0.000 A 
ATOM     10  C8  UNL     1      58.654  58.367  69.789  0.00  0.00    +0.000 A 
ATOM     11  C9  UNL     1      59.093  59.608  69.300  0.00  0.00    +0.000 A 
ATOM     12  C10 UNL     1      60.287  60.175  69.775  0.00  0.00    +0.000 A 
ATOM     13  C11 UNL     1      61.056  59.500  70.735  0.00  0.00    +0.000 A 
ATOM     14  C12 UNL     1      60.594  58.271  71.210  0.00  0.00    +0.000 A 
ATOM     15  N2  UNL     1      61.246  57.442  72.151  0.00  0.00    +0.000 N 
ATOM     16  C13 UNL     1      62.554  56.950  72.001  0.00  0.00    +0.000 C 
ATOM     17  O2  UNL     1      63.521  57.656  71.610  0.00  0.00    +0.000 OA
ATOM     18  C14 UNL     1      62.621  55.497  72.275  0.00  0.00    +0.000 C 
ATOM     19  N4  UNL     1      61.208  55.087  72.429  0.00  0.00    +0.000 NA
ATOM     20  C24 UNL     1      60.384  56.315  72.458  0.00  0.00    +0.000 C 
ATOM     21  N5  UNL     1      58.082  53.772  71.712  0.00  0.00    +0.000 N 
ATOM     22  C25 UNL     1      57.836  54.765  72.629  0.00  0.00    +0.000 A 
ATOM     23  N6  UNL     1      57.753  54.485  73.955  0.00  0.00    +0.000 NA
ATOM     24  C26 UNL     1      57.895  53.210  74.399  0.00  0.00    +0.000 A 
ATOM     25  C27 UNL     1      57.800  52.936  75.768  0.00  0.00    +0.000 A 
ATOM     26  C28 UNL     1      57.957  51.627  76.233  0.00  0.00    +0.000 A 
ATOM     27  C29 UNL     1      58.214  50.587  75.334  0.00  0.00    +0.000 A 
ATOM     28  C30 UNL     1      58.314  50.851  73.965  0.00  0.00    +0.000 A 
ATOM     29  C31 UNL     1      58.153  52.164  73.484  0.00  0.00    +0.000 A 
ATOM     30  C32 UNL     1      58.251  52.479  72.116  0.00  0.00    +0.000 A 
ATOM     31  O3  UNL     1      58.499  51.577  71.270  0.00  0.00    +0.000 OA
ATOM     32  H4  UNL     1      55.971  56.784  70.911  0.00  0.00    +0.000 HD
ATOM     33  H21 UNL     1      61.049  54.542  73.309  0.00  0.00    +0.000 HD
ENDROOT
BRANCH  18  34
ATOM     34  C15 UNL     1      63.451  55.189  73.539  0.00  0.00    +0.000 C 
BRANCH  34  35
ATOM     35  C16 UNL     1      63.466  53.719  73.843  0.00  0.00    +0.000 A 
ATOM     36  C17 UNL     1      64.224  52.753  73.187  0.00  0.00    +0.000 A 
ATOM     37  N3  UNL     1      64.035  51.539  73.752  0.00  0.00    +0.000 N 
ATOM     38  C18 UNL     1      63.168  51.732  74.762  0.00  0.00    +0.000 A 
ATOM     39  C19 UNL     1      62.676  50.772  75.644  0.00  0.00    +0.000 A 
ATOM     40  C20 UNL     1      61.784  51.195  76.647  0.00  0.00    +0.000 A 
ATOM     41  C21 UNL     1      61.405  52.552  76.740  0.00  0.00    +0.000 A 
ATOM     42  C22 UNL     1      61.915  53.500  75.834  0.00  0.00    +0.000 A 
ATOM     43  C23 UNL     1      62.799  53.050  74.851  0.00  0.00    +0.000 A 
ATOM     44  H16 UNL     1      64.479  50.640  73.462  0.00  0.00    +0.000 HD
ENDBRANCH  34  35
ENDBRANCH  18  34
TORSDOF 2
ENDMDL
