MODEL 1
REMARK VINA RESULT:    -9.133      0.000      0.000
REMARK INTER + INTRA:         -11.874
REMARK INTER:                 -10.200
REMARK INTRA:                  -1.674
REMARK UNBOUND:                -1.674
REMARK  Name = CNP0357158_1.pdb
REMARK  3 active torsions:
REMARK  status: ('A' for Active; 'I' for Inactive)
REMARK    1  A    between atoms: C1_1  and  C2_2
REMARK    2  A    between atoms: C14_18  and  C15_19
REMARK    3  A    between atoms: C15_19  and  C16_20
REMARK                            x       y       z     vdW  Elec       q    Type
REMARK                         _______ _______ _______ _____ _____    ______ ____
ROOT
ATOM      1  C1  UNL     1      57.393  57.250  73.093  0.00  0.00    +0.000 C 
ATOM      2  C2  UNL     1      57.787  56.175  72.059  0.00  0.00    +0.000 C 
ATOM      3  N1  UNL     1      56.777  56.121  70.981  0.00  0.00    +0.000 N 
ATOM      4  C3  UNL     1      56.981  55.065  70.034  0.00  0.00    +0.000 C 
ATOM      5  O1  UNL     1      56.205  54.870  69.063  0.00  0.00    +0.000 OA
ATOM      6  C4  UNL     1      58.199  54.228  70.305  0.00  0.00    +0.000 C 
ATOM      7  C5  UNL     1      59.377  55.237  70.241  0.00  0.00    +0.000 C 
ATOM      8  C6  UNL     1      59.214  56.350  71.382  0.00  0.00    +0.000 C 
ATOM      9  C7  UNL     1      59.415  57.721  70.772  0.00  0.00    +0.000 A 
ATOM     10  C8  UNL     1      58.654  58.367  69.789  0.00  0.00    +0.000 A 
ATOM     11  C9  UNL     1      59.093  59.608  69.300  0.00  0.00    +0.000 A 
ATOM     12  C10 UNL     1      60.287  60.175  69.775  0.00  0.00    +0.000 A 
ATOM     13  C11 UNL     1      61.056  59.500  70.735  0.00  0.00    +0.000 A 
ATOM     14  C12 UNL     1      60.594  58.271  71.210  0.00  0.00    +0.000 A 
ATOM     15  N2  UNL     1      61.246  57.442  72.151  0.00  0.00    +0.000 N 
ATOM     16  C13 UNL     1      62.554  56.950  72.001  0.00  0.00    +0.000 C 
ATOM     17  O2  UNL     1      63.521  57.656  71.610  0.00  0.00    +0.000 OA
ATOM     18  C14 UNL     1      62.621  55.497  72.275  0.00  0.00    +0.000 C 
ATOM     19  N4  UNL     1      61.208  55.087  72.429  0.00  0.00    +0.000 NA
ATOM     20  C24 UNL     1      60.384  56.315  72.458  0.00  0.00    +0.000 C 
ATOM     21  N5  UNL     1      58.082  53.772  71.712  0.00  0.00    +0.000 N 
ATOM     22  C25 UNL     1      57.836  54.765  72.629  0.00  0.00    +0.000 A 
ATOM     23  N6  UNL     1      57.753  54.485  73.955  0.00  0.00    +0.000 NA
ATOM     24  C26 UNL     1      57.895  53.210  74.399  0.00  0.00    +0.000 A 
ATOM     25  C27 UNL     1      57.800  52.936  75.768  0.00  0.00    +0.000 A 
ATOM     26  C28 UNL     1      57.957  51.627  76.233  0.00  0.00    +0.000 A 
ATOM     27  C29 UNL     1      58.214  50.587  75.334  0.00  0.00    +0.000 A 
ATOM     28  C30 UNL     1      58.314  50.851  73.965  0.00  0.00    +0.000 A 
ATOM     29  C31 UNL     1      58.153  52.164  73.484  0.00  0.00    +0.000 A 
ATOM     30  C32 UNL     1      58.251  52.479  72.116  0.00  0.00    +0.000 A 
ATOM     31  O3  UNL     1      58.499  51.577  71.270  0.00  0.00    +0.000 OA
ATOM     32  H4  UNL     1      55.971  56.784  70.911  0.00  0.00    +0.000 HD
ATOM     33  H21 UNL     1      61.049  54.542  73.309  0.00  0.00    +0.000 HD
ENDROOT
BRANCH  18  34
ATOM     34  C15 UNL     1      63.451  55.189  73.539  0.00  0.00    +0.000 C 
BRANCH  34  35
ATOM     35  C16 UNL     1      63.466  53.719  73.843  0.00  0.00    +0.000 A 
ATOM     36  C17 UNL     1      64.224  52.753  73.187  0.00  0.00    +0.000 A 
ATOM     37  N3  UNL     1      64.035  51.539  73.752  0.00  0.00    +0.000 N 
ATOM     38  C18 UNL     1      63.168  51.732  74.762  0.00  0.00    +0.000 A 
ATOM     39  C19 UNL     1      62.676  50.772  75.644  0.00  0.00    +0.000 A 
ATOM     40  C20 UNL     1      61.784  51.195  76.647  0.00  0.00    +0.000 A 
ATOM     41  C21 UNL     1      61.405  52.552  76.740  0.00  0.00    +0.000 A 
ATOM     42  C22 UNL     1      61.915  53.500  75.834  0.00  0.00    +0.000 A 
ATOM     43  C23 UNL     1      62.799  53.050  74.851  0.00  0.00    +0.000 A 
ATOM     44  H16 UNL     1      64.479  50.640  73.462  0.00  0.00    +0.000 HD
ENDBRANCH  34  35
ENDBRANCH  18  34
TORSDOF 2
ENDMDL
MODEL 2
REMARK VINA RESULT:    -8.914      2.671      6.441
REMARK INTER + INTRA:         -11.631
REMARK INTER:                 -11.100
REMARK INTRA:                  -0.531
REMARK UNBOUND:                -1.674
REMARK  Name = CNP0357158_1.pdb
REMARK  3 active torsions:
REMARK  status: ('A' for Active; 'I' for Inactive)
REMARK    1  A    between atoms: C1_1  and  C2_2
REMARK    2  A    between atoms: C14_18  and  C15_19
REMARK    3  A    between atoms: C15_19  and  C16_20
REMARK                            x       y       z     vdW  Elec       q    Type
REMARK                         _______ _______ _______ _____ _____    ______ ____
ROOT
ATOM      1  C1  UNL     1      60.395  52.980  69.055  0.00  0.00    +0.000 C 
ATOM      2  C2  UNL     1      59.908  54.423  69.299  0.00  0.00    +0.000 C 
ATOM      3  N1  UNL     1      59.856  55.159  68.019  0.00  0.00    +0.000 N 
ATOM      4  C3  UNL     1      59.538  56.551  68.151  0.00  0.00    +0.000 C 
ATOM      5  O1  UNL     1      59.467  57.324  67.160  0.00  0.00    +0.000 OA
ATOM      6  C4  UNL     1      59.294  56.990  69.566  0.00  0.00    +0.000 C 
ATOM      7  C5  UNL     1      58.094  56.121  70.033  0.00  0.00    +0.000 C 
ATOM      8  C6  UNL     1      58.490  54.570  70.003  0.00  0.00    +0.000 C 
ATOM      9  C7  UNL     1      57.399  53.791  69.302  0.00  0.00    +0.000 A 
ATOM     10  C8  UNL     1      56.965  53.884  67.973  0.00  0.00    +0.000 A 
ATOM     11  C9  UNL     1      55.856  53.125  67.567  0.00  0.00    +0.000 A 
ATOM     12  C10 UNL     1      55.183  52.304  68.488  0.00  0.00    +0.000 A 
ATOM     13  C11 UNL     1      55.608  52.247  69.824  0.00  0.00    +0.000 A 
ATOM     14  C12 UNL     1      56.719  53.006  70.200  0.00  0.00    +0.000 A 
ATOM     15  N2  UNL     1      57.268  53.094  71.498  0.00  0.00    +0.000 N 
ATOM     16  C13 UNL     1      56.547  53.488  72.639  0.00  0.00    +0.000 C 
ATOM     17  O2  UNL     1      55.390  53.070  72.908  0.00  0.00    +0.000 OA
ATOM     18  C14 UNL     1      57.283  54.508  73.419  0.00  0.00    +0.000 C 
ATOM     19  N4  UNL     1      58.443  54.853  72.570  0.00  0.00    +0.000 NA
ATOM     20  C24 UNL     1      58.476  53.895  71.443  0.00  0.00    +0.000 C 
ATOM     21  N5  UNL     1      60.481  56.559  70.344  0.00  0.00    +0.000 N 
ATOM     22  C25 UNL     1      60.832  55.240  70.190  0.00  0.00    +0.000 A 
ATOM     23  N6  UNL     1      61.872  54.710  70.883  0.00  0.00    +0.000 NA
ATOM     24  C26 UNL     1      62.601  55.482  71.730  0.00  0.00    +0.000 A 
ATOM     25  C27 UNL     1      63.674  54.923  72.432  0.00  0.00    +0.000 A 
ATOM     26  C28 UNL     1      64.420  55.710  73.314  0.00  0.00    +0.000 A 
ATOM     27  C29 UNL     1      64.093  57.056  73.504  0.00  0.00    +0.000 A 
ATOM     28  C30 UNL     1      63.020  57.624  72.810  0.00  0.00    +0.000 A 
ATOM     29  C31 UNL     1      62.265  56.843  71.915  0.00  0.00    +0.000 A 
ATOM     30  C32 UNL     1      61.173  57.368  71.199  0.00  0.00    +0.000 A 
ATOM     31  O3  UNL     1      60.830  58.571  71.351  0.00  0.00    +0.000 OA
ATOM     32  H4  UNL     1      60.046  54.718  67.090  0.00  0.00    +0.000 HD
ATOM     33  H21 UNL     1      59.347  54.802  73.096  0.00  0.00    +0.000 HD
ENDROOT
BRANCH  18  34
ATOM     34  C15 UNL     1      57.718  53.972  74.799  0.00  0.00    +0.000 C 
BRANCH  34  35
ATOM     35  C16 UNL     1      56.928  54.603  75.909  0.00  0.00    +0.000 A 
ATOM     36  C17 UNL     1      55.706  55.255  75.778  0.00  0.00    +0.000 A 
ATOM     37  N3  UNL     1      55.251  55.656  76.986  0.00  0.00    +0.000 N 
ATOM     38  C18 UNL     1      56.174  55.258  77.880  0.00  0.00    +0.000 A 
ATOM     39  C19 UNL     1      56.140  55.436  79.262  0.00  0.00    +0.000 A 
ATOM     40  C20 UNL     1      57.210  54.922  80.017  0.00  0.00    +0.000 A 
ATOM     41  C21 UNL     1      58.279  54.253  79.381  0.00  0.00    +0.000 A 
ATOM     42  C22 UNL     1      58.288  54.090  77.984  0.00  0.00    +0.000 A 
ATOM     43  C23 UNL     1      57.213  54.609  77.261  0.00  0.00    +0.000 A 
ATOM     44  H16 UNL     1      54.361  56.165  77.181  0.00  0.00    +0.000 HD
ENDBRANCH  34  35
ENDBRANCH  18  34
TORSDOF 2
ENDMDL
MODEL 3
REMARK VINA RESULT:    -8.814      2.690      6.306
REMARK INTER + INTRA:         -11.518
REMARK INTER:                 -10.548
REMARK INTRA:                  -0.970
REMARK UNBOUND:                -1.674
REMARK  Name = CNP0357158_1.pdb
REMARK  3 active torsions:
REMARK  status: ('A' for Active; 'I' for Inactive)
REMARK    1  A    between atoms: C1_1  and  C2_2
REMARK    2  A    between atoms: C14_18  and  C15_19
REMARK    3  A    between atoms: C15_19  and  C16_20
REMARK                            x       y       z     vdW  Elec       q    Type
REMARK                         _______ _______ _______ _____ _____    ______ ____
ROOT
ATOM      1  C1  UNL     1      61.937  53.012  70.581  0.00  0.00    +0.000 C 
ATOM      2  C2  UNL     1      60.935  53.378  71.696  0.00  0.00    +0.000 C 
ATOM      3  N1  UNL     1      61.333  52.728  72.962  0.00  0.00    +0.000 N 
ATOM      4  C3  UNL     1      60.395  52.899  74.033  0.00  0.00    +0.000 C 
ATOM      5  O1  UNL     1      60.575  52.398  75.174  0.00  0.00    +0.000 OA
ATOM      6  C4  UNL     1      59.198  53.730  73.671  0.00  0.00    +0.000 C 
ATOM      7  C5  UNL     1      59.797  55.102  73.259  0.00  0.00    +0.000 C 
ATOM      8  C6  UNL     1      60.750  54.930  71.983  0.00  0.00    +0.000 C 
ATOM      9  C7  UNL     1      62.059  55.644  72.240  0.00  0.00    +0.000 A 
ATOM     10  C8  UNL     1      63.029  55.382  73.217  0.00  0.00    +0.000 A 
ATOM     11  C9  UNL     1      64.127  56.248  73.331  0.00  0.00    +0.000 A 
ATOM     12  C10 UNL     1      64.235  57.371  72.493  0.00  0.00    +0.000 A 
ATOM     13  C11 UNL     1      63.239  57.640  71.542  0.00  0.00    +0.000 A 
ATOM     14  C12 UNL     1      62.161  56.758  71.444  0.00  0.00    +0.000 A 
ATOM     15  N2  UNL     1      61.058  56.884  70.569  0.00  0.00    +0.000 N 
ATOM     16  C13 UNL     1      60.212  58.006  70.516  0.00  0.00    +0.000 C 
ATOM     17  O2  UNL     1      60.632  59.193  70.526  0.00  0.00    +0.000 OA
ATOM     18  C14 UNL     1      58.786  57.610  70.536  0.00  0.00    +0.000 C 
ATOM     19  N4  UNL     1      58.812  56.153  70.791  0.00  0.00    +0.000 NA
ATOM     20  C24 UNL     1      60.220  55.706  70.701  0.00  0.00    +0.000 C 
ATOM     21  N5  UNL     1      58.623  53.115  72.449  0.00  0.00    +0.000 N 
ATOM     22  C25 UNL     1      59.517  52.895  71.430  0.00  0.00    +0.000 A 
ATOM     23  N6  UNL     1      59.108  52.380  70.242  0.00  0.00    +0.000 NA
ATOM     24  C26 UNL     1      57.805  52.053  70.046  0.00  0.00    +0.000 A 
ATOM     25  C27 UNL     1      57.399  51.516  68.819  0.00  0.00    +0.000 A 
ATOM     26  C28 UNL     1      56.057  51.189  68.607  0.00  0.00    +0.000 A 
ATOM     27  C29 UNL     1      55.113  51.401  69.616  0.00  0.00    +0.000 A 
ATOM     28  C30 UNL     1      55.507  51.940  70.845  0.00  0.00    +0.000 A 
ATOM     29  C31 UNL     1      56.856  52.269  71.072  0.00  0.00    +0.000 A 
ATOM     30  C32 UNL     1      57.299  52.819  72.289  0.00  0.00    +0.000 A 
ATOM     31  O3  UNL     1      56.483  53.045  73.223  0.00  0.00    +0.000 OA
ATOM     32  H4  UNL     1      62.214  52.176  73.077  0.00  0.00    +0.000 HD
ATOM     33  H21 UNL     1      58.234  55.620  70.100  0.00  0.00    +0.000 HD
ENDROOT
BRANCH  18  34
ATOM     34  C15 UNL     1      58.079  57.948  69.206  0.00  0.00    +0.000 C 
BRANCH  34  35
ATOM     35  C16 UNL     1      58.755  57.290  68.040  0.00  0.00    +0.000 A 
ATOM     36  C17 UNL     1      59.924  57.720  67.418  0.00  0.00    +0.000 A 
ATOM     37  N3  UNL     1      60.282  56.864  66.435  0.00  0.00    +0.000 N 
ATOM     38  C18 UNL     1      59.352  55.892  66.435  0.00  0.00    +0.000 A 
ATOM     39  C19 UNL     1      59.300  54.776  65.602  0.00  0.00    +0.000 A 
ATOM     40  C20 UNL     1      58.240  53.868  65.784  0.00  0.00    +0.000 A 
ATOM     41  C21 UNL     1      57.265  54.096  66.779  0.00  0.00    +0.000 A 
ATOM     42  C22 UNL     1      57.341  55.233  67.604  0.00  0.00    +0.000 A 
ATOM     43  C23 UNL     1      58.404  56.115  67.401  0.00  0.00    +0.000 A 
ATOM     44  H16 UNL     1      61.115  56.942  65.812  0.00  0.00    +0.000 HD
ENDBRANCH  34  35
ENDBRANCH  18  34
TORSDOF 2
ENDMDL
MODEL 4
REMARK VINA RESULT:    -8.286      3.568      7.408
REMARK INTER + INTRA:         -10.928
REMARK INTER:                 -10.356
REMARK INTRA:                  -0.572
REMARK UNBOUND:                -1.674
REMARK  Name = CNP0357158_1.pdb
REMARK  3 active torsions:
REMARK  status: ('A' for Active; 'I' for Inactive)
REMARK    1  A    between atoms: C1_1  and  C2_2
REMARK    2  A    between atoms: C14_18  and  C15_19
REMARK    3  A    between atoms: C15_19  and  C16_20
REMARK                            x       y       z     vdW  Elec       q    Type
REMARK                         _______ _______ _______ _____ _____    ______ ____
ROOT
ATOM      1  C1  UNL     1      60.728  53.690  67.457  0.00  0.00    +0.000 C 
ATOM      2  C2  UNL     1      59.682  54.821  67.547  0.00  0.00    +0.000 C 
ATOM      3  N1  UNL     1      59.515  55.456  66.223  0.00  0.00    +0.000 N 
ATOM      4  C3  UNL     1      58.659  56.606  66.224  0.00  0.00    +0.000 C 
ATOM      5  O1  UNL     1      58.421  57.272  65.183  0.00  0.00    +0.000 OA
ATOM      6  C4  UNL     1      58.075  56.931  67.569  0.00  0.00    +0.000 C 
ATOM      7  C5  UNL     1      57.266  55.661  67.950  0.00  0.00    +0.000 C 
ATOM      8  C6  UNL     1      58.242  54.398  68.070  0.00  0.00    +0.000 C 
ATOM      9  C7  UNL     1      57.651  53.237  67.299  0.00  0.00    +0.000 A 
ATOM     10  C8  UNL     1      57.396  53.130  65.926  0.00  0.00    +0.000 A 
ATOM     11  C9  UNL     1      56.743  51.985  65.445  0.00  0.00    +0.000 A 
ATOM     12  C10 UNL     1      56.332  50.976  66.334  0.00  0.00    +0.000 A 
ATOM     13  C11 UNL     1      56.564  51.114  67.711  0.00  0.00    +0.000 A 
ATOM     14  C12 UNL     1      57.223  52.259  68.162  0.00  0.00    +0.000 A 
ATOM     15  N2  UNL     1      57.515  52.578  69.507  0.00  0.00    +0.000 N 
ATOM     16  C13 UNL     1      56.552  52.666  70.528  0.00  0.00    +0.000 C 
ATOM     17  O2  UNL     1      55.629  51.824  70.688  0.00  0.00    +0.000 OA
ATOM     18  C14 UNL     1      56.714  53.907  71.318  0.00  0.00    +0.000 C 
ATOM     19  N4  UNL     1      57.746  54.676  70.589  0.00  0.00    +0.000 NA
ATOM     20  C24 UNL     1      58.304  53.795  69.540  0.00  0.00    +0.000 C 
ATOM     21  N5  UNL     1      59.221  57.022  68.507  0.00  0.00    +0.000 N 
ATOM     22  C25 UNL     1      60.081  55.952  68.483  0.00  0.00    +0.000 A 
ATOM     23  N6  UNL     1      61.144  55.892  69.325  0.00  0.00    +0.000 NA
ATOM     24  C26 UNL     1      61.389  56.903  70.198  0.00  0.00    +0.000 A 
ATOM     25  C27 UNL     1      62.492  56.831  71.056  0.00  0.00    +0.000 A 
ATOM     26  C28 UNL     1      62.741  57.863  71.965  0.00  0.00    +0.000 A 
ATOM     27  C29 UNL     1      61.888  58.969  72.026  0.00  0.00    +0.000 A 
ATOM     28  C30 UNL     1      60.780  59.049  71.175  0.00  0.00    +0.000 A 
ATOM     29  C31 UNL     1      60.522  58.019  70.253  0.00  0.00    +0.000 A 
ATOM     30  C32 UNL     1      59.416  58.052  69.382  0.00  0.00    +0.000 A 
ATOM     31  O3  UNL     1      58.609  59.020  69.412  0.00  0.00    +0.000 OA
ATOM     32  H4  UNL     1      59.985  55.114  65.354  0.00  0.00    +0.000 HD
ATOM     33  H21 UNL     1      58.518  54.998  71.219  0.00  0.00    +0.000 HD
ENDROOT
BRANCH  18  34
ATOM     34  C15 UNL     1      57.138  53.610  72.772  0.00  0.00    +0.000 C 
BRANCH  34  35
ATOM     35  C16 UNL     1      56.191  54.228  73.759  0.00  0.00    +0.000 A 
ATOM     36  C17 UNL     1      56.449  55.334  74.563  0.00  0.00    +0.000 A 
ATOM     37  N3  UNL     1      55.358  55.654  75.294  0.00  0.00    +0.000 N 
ATOM     38  C18 UNL     1      54.410  54.762  74.954  0.00  0.00    +0.000 A 
ATOM     39  C19 UNL     1      53.105  54.694  75.438  0.00  0.00    +0.000 A 
ATOM     40  C20 UNL     1      52.267  53.683  74.930  0.00  0.00    +0.000 A 
ATOM     41  C21 UNL     1      52.749  52.772  73.965  0.00  0.00    +0.000 A 
ATOM     42  C22 UNL     1      54.073  52.863  73.497  0.00  0.00    +0.000 A 
ATOM     43  C23 UNL     1      54.879  53.876  74.017  0.00  0.00    +0.000 A 
ATOM     44  H16 UNL     1      55.272  56.439  75.977  0.00  0.00    +0.000 HD
ENDBRANCH  34  35
ENDBRANCH  18  34
TORSDOF 2
ENDMDL
MODEL 5
REMARK VINA RESULT:    -8.222      0.841      1.484
REMARK INTER + INTRA:         -10.857
REMARK INTER:                  -9.855
REMARK INTRA:                  -1.002
REMARK UNBOUND:                -1.674
REMARK  Name = CNP0357158_1.pdb
REMARK  3 active torsions:
REMARK  status: ('A' for Active; 'I' for Inactive)
REMARK    1  A    between atoms: C1_1  and  C2_2
REMARK    2  A    between atoms: C14_18  and  C15_19
REMARK    3  A    between atoms: C15_19  and  C16_20
REMARK                            x       y       z     vdW  Elec       q    Type
REMARK                         _______ _______ _______ _____ _____    ______ ____
ROOT
ATOM      1  C1  UNL     1      57.395  57.054  72.816  0.00  0.00    +0.000 C 
ATOM      2  C2  UNL     1      57.852  56.028  71.759  0.00  0.00    +0.000 C 
ATOM      3  N1  UNL     1      56.856  55.953  70.669  0.00  0.00    +0.000 N 
ATOM      4  C3  UNL     1      57.122  54.933  69.697  0.00  0.00    +0.000 C 
ATOM      5  O1  UNL     1      56.366  54.725  68.713  0.00  0.00    +0.000 OA
ATOM      6  C4  UNL     1      58.378  54.152  69.958  0.00  0.00    +0.000 C 
ATOM      7  C5  UNL     1      59.504  55.221  69.933  0.00  0.00    +0.000 C 
ATOM      8  C6  UNL     1      59.275  56.293  71.100  0.00  0.00    +0.000 C 
ATOM      9  C7  UNL     1      59.411  57.688  70.529  0.00  0.00    +0.000 A 
ATOM     10  C8  UNL     1      58.627  58.321  69.555  0.00  0.00    +0.000 A 
ATOM     11  C9  UNL     1      59.006  59.595  69.103  0.00  0.00    +0.000 A 
ATOM     12  C10 UNL     1      60.166  60.209  69.606  0.00  0.00    +0.000 A 
ATOM     13  C11 UNL     1      60.960  59.548  70.555  0.00  0.00    +0.000 A 
ATOM     14  C12 UNL     1      60.556  58.286  70.994  0.00  0.00    +0.000 A 
ATOM     15  N2  UNL     1      61.241  57.466  71.918  0.00  0.00    +0.000 N 
ATOM     16  C13 UNL     1      62.574  57.045  71.769  0.00  0.00    +0.000 C 
ATOM     17  O2  UNL     1      63.507  57.809  71.407  0.00  0.00    +0.000 OA
ATOM     18  C14 UNL     1      62.712  55.591  72.006  0.00  0.00    +0.000 C 
ATOM     19  N4  UNL     1      61.321  55.105  72.135  0.00  0.00    +0.000 NA
ATOM     20  C24 UNL     1      60.435  56.289  72.187  0.00  0.00    +0.000 C 
ATOM     21  N5  UNL     1      58.273  53.654  71.352  0.00  0.00    +0.000 N 
ATOM     22  C25 UNL     1      57.967  54.608  72.292  0.00  0.00    +0.000 A 
ATOM     23  N6  UNL     1      57.888  54.289  73.609  0.00  0.00    +0.000 NA
ATOM     24  C26 UNL     1      58.090  53.012  74.022  0.00  0.00    +0.000 A 
ATOM     25  C27 UNL     1      57.997  52.697  75.382  0.00  0.00    +0.000 A 
ATOM     26  C28 UNL     1      58.217  51.386  75.814  0.00  0.00    +0.000 A 
ATOM     27  C29 UNL     1      58.534  50.384  74.891  0.00  0.00    +0.000 A 
ATOM     28  C30 UNL     1      58.632  50.689  73.530  0.00  0.00    +0.000 A 
ATOM     29  C31 UNL     1      58.409  52.004  73.082  0.00  0.00    +0.000 A 
ATOM     30  C32 UNL     1      58.503  52.360  71.724  0.00  0.00    +0.000 A 
ATOM     31  O3  UNL     1      58.804  51.495  70.857  0.00  0.00    +0.000 OA
ATOM     32  H4  UNL     1      56.018  56.575  70.608  0.00  0.00    +0.000 HD
ATOM     33  H21 UNL     1      61.182  54.530  72.999  0.00  0.00    +0.000 HD
ENDROOT
BRANCH  18  34
ATOM     34  C15 UNL     1      63.546  55.292  73.270  0.00  0.00    +0.000 C 
BRANCH  34  35
ATOM     35  C16 UNL     1      63.125  54.003  73.915  0.00  0.00    +0.000 A 
ATOM     36  C17 UNL     1      62.211  53.866  74.955  0.00  0.00    +0.000 A 
ATOM     37  N3  UNL     1      62.027  52.561  75.255  0.00  0.00    +0.000 N 
ATOM     38  C18 UNL     1      62.813  51.872  74.410  0.00  0.00    +0.000 A 
ATOM     39  C19 UNL     1      62.956  50.488  74.329  0.00  0.00    +0.000 A 
ATOM     40  C20 UNL     1      63.827  49.971  73.352  0.00  0.00    +0.000 A 
ATOM     41  C21 UNL     1      64.531  50.841  72.490  0.00  0.00    +0.000 A 
ATOM     42  C22 UNL     1      64.370  52.234  72.595  0.00  0.00    +0.000 A 
ATOM     43  C23 UNL     1      63.499  52.717  73.573  0.00  0.00    +0.000 A 
ATOM     44  H16 UNL     1      61.396  52.172  75.991  0.00  0.00    +0.000 HD
ENDBRANCH  34  35
ENDBRANCH  18  34
TORSDOF 2
ENDMDL
MODEL 6
REMARK VINA RESULT:    -8.127      2.034      2.889
REMARK INTER + INTRA:         -10.751
REMARK INTER:                 -10.279
REMARK INTRA:                  -0.472
REMARK UNBOUND:                -1.674
REMARK  Name = CNP0357158_1.pdb
REMARK  3 active torsions:
REMARK  status: ('A' for Active; 'I' for Inactive)
REMARK    1  A    between atoms: C1_1  and  C2_2
REMARK    2  A    between atoms: C14_18  and  C15_19
REMARK    3  A    between atoms: C15_19  and  C16_20
REMARK                            x       y       z     vdW  Elec       q    Type
REMARK                         _______ _______ _______ _____ _____    ______ ____
ROOT
ATOM      1  C1  UNL     1      57.803  56.919  72.754  0.00  0.00    +0.000 C 
ATOM      2  C2  UNL     1      58.142  56.295  71.384  0.00  0.00    +0.000 C 
ATOM      3  N1  UNL     1      57.723  57.207  70.299  0.00  0.00    +0.000 N 
ATOM      4  C3  UNL     1      57.876  56.665  68.981  0.00  0.00    +0.000 C 
ATOM      5  O1  UNL     1      57.554  57.305  67.946  0.00  0.00    +0.000 OA
ATOM      6  C4  UNL     1      58.458  55.280  68.953  0.00  0.00    +0.000 C 
ATOM      7  C5  UNL     1      59.846  55.437  69.631  0.00  0.00    +0.000 C 
ATOM      8  C6  UNL     1      59.670  55.925  71.146  0.00  0.00    +0.000 C 
ATOM      9  C7  UNL     1      60.606  57.084  71.408  0.00  0.00    +0.000 A 
ATOM     10  C8  UNL     1      60.621  58.355  70.817  0.00  0.00    +0.000 A 
ATOM     11  C9  UNL     1      61.657  59.243  71.147  0.00  0.00    +0.000 A 
ATOM     12  C10 UNL     1      62.671  58.851  72.038  0.00  0.00    +0.000 A 
ATOM     13  C11 UNL     1      62.661  57.564  72.595  0.00  0.00    +0.000 A 
ATOM     14  C12 UNL     1      61.615  56.702  72.256  0.00  0.00    +0.000 A 
ATOM     15  N2  UNL     1      61.458  55.369  72.696  0.00  0.00    +0.000 N 
ATOM     16  C13 UNL     1      62.418  54.357  72.520  0.00  0.00    +0.000 C 
ATOM     17  O2  UNL     1      63.649  54.523  72.729  0.00  0.00    +0.000 OA
ATOM     18  C14 UNL     1      61.809  53.121  71.979  0.00  0.00    +0.000 C 
ATOM     19  N4  UNL     1      60.417  53.507  71.659  0.00  0.00    +0.000 NA
ATOM     20  C24 UNL     1      60.189  54.861  72.208  0.00  0.00    +0.000 C 
ATOM     21  N5  UNL     1      57.615  54.460  69.856  0.00  0.00    +0.000 N 
ATOM     22  C25 UNL     1      57.414  54.988  71.108  0.00  0.00    +0.000 A 
ATOM     23  N6  UNL     1      56.699  54.312  72.044  0.00  0.00    +0.000 NA
ATOM     24  C26 UNL     1      56.149  53.105  71.752  0.00  0.00    +0.000 A 
ATOM     25  C27 UNL     1      55.409  52.424  72.724  0.00  0.00    +0.000 A 
ATOM     26  C28 UNL     1      54.852  51.176  72.434  0.00  0.00    +0.000 A 
ATOM     27  C29 UNL     1      55.036  50.599  71.173  0.00  0.00    +0.000 A 
ATOM     28  C30 UNL     1      55.777  51.270  70.195  0.00  0.00    +0.000 A 
ATOM     29  C31 UNL     1      56.338  52.530  70.475  0.00  0.00    +0.000 A 
ATOM     30  C32 UNL     1      57.097  53.240  69.525  0.00  0.00    +0.000 A 
ATOM     31  O3  UNL     1      57.305  52.753  68.381  0.00  0.00    +0.000 OA
ATOM     32  H4  UNL     1      57.334  58.163  70.466  0.00  0.00    +0.000 HD
ATOM     33  H21 UNL     1      59.719  52.843  72.070  0.00  0.00    +0.000 HD
ENDROOT
BRANCH  18  34
ATOM     34  C15 UNL     1      61.866  51.961  72.995  0.00  0.00    +0.000 C 
BRANCH  34  35
ATOM     35  C16 UNL     1      61.486  52.418  74.374  0.00  0.00    +0.000 A 
ATOM     36  C17 UNL     1      60.195  52.673  74.826  0.00  0.00    +0.000 A 
ATOM     37  N3  UNL     1      60.210  53.016  76.134  0.00  0.00    +0.000 N 
ATOM     38  C18 UNL     1      61.500  52.974  76.512  0.00  0.00    +0.000 A 
ATOM     39  C19 UNL     1      62.016  53.240  77.779  0.00  0.00    +0.000 A 
ATOM     40  C20 UNL     1      63.406  53.120  77.963  0.00  0.00    +0.000 A 
ATOM     41  C21 UNL     1      64.240  52.745  76.887  0.00  0.00    +0.000 A 
ATOM     42  C22 UNL     1      63.692  52.484  75.617  0.00  0.00    +0.000 A 
ATOM     43  C23 UNL     1      62.310  52.611  75.466  0.00  0.00    +0.000 A 
ATOM     44  H16 UNL     1      59.385  53.257  76.726  0.00  0.00    +0.000 HD
ENDBRANCH  34  35
ENDBRANCH  18  34
TORSDOF 2
ENDMDL
MODEL 7
REMARK VINA RESULT:    -8.124      2.121      5.631
REMARK INTER + INTRA:         -10.748
REMARK INTER:                  -9.757
REMARK INTRA:                  -0.991
REMARK UNBOUND:                -1.674
REMARK  Name = CNP0357158_1.pdb
REMARK  3 active torsions:
REMARK  status: ('A' for Active; 'I' for Inactive)
REMARK    1  A    between atoms: C1_1  and  C2_2
REMARK    2  A    between atoms: C14_18  and  C15_19
REMARK    3  A    between atoms: C15_19  and  C16_20
REMARK                            x       y       z     vdW  Elec       q    Type
REMARK                         _______ _______ _______ _____ _____    ______ ____
ROOT
ATOM      1  C1  UNL     1      60.470  52.942  69.232  0.00  0.00    +0.000 C 
ATOM      2  C2  UNL     1      60.021  54.406  69.419  0.00  0.00    +0.000 C 
ATOM      3  N1  UNL     1      59.992  55.093  68.110  0.00  0.00    +0.000 N 
ATOM      4  C3  UNL     1      59.711  56.497  68.188  0.00  0.00    +0.000 C 
ATOM      5  O1  UNL     1      59.663  57.232  67.168  0.00  0.00    +0.000 OA
ATOM      6  C4  UNL     1      59.475  56.997  69.584  0.00  0.00    +0.000 C 
ATOM      7  C5  UNL     1      58.252  56.178  70.080  0.00  0.00    +0.000 C 
ATOM      8  C6  UNL     1      58.606  54.617  70.112  0.00  0.00    +0.000 C 
ATOM      9  C7  UNL     1      57.496  53.840  69.437  0.00  0.00    +0.000 A 
ATOM     10  C8  UNL     1      57.068  53.894  68.104  0.00  0.00    +0.000 A 
ATOM     11  C9  UNL     1      55.941  53.149  67.724  0.00  0.00    +0.000 A 
ATOM     12  C10 UNL     1      55.243  52.383  68.674  0.00  0.00    +0.000 A 
ATOM     13  C11 UNL     1      55.664  52.366  70.012  0.00  0.00    +0.000 A 
ATOM     14  C12 UNL     1      56.793  53.110  70.362  0.00  0.00    +0.000 A 
ATOM     15  N2  UNL     1      57.341  53.233  71.658  0.00  0.00    +0.000 N 
ATOM     16  C13 UNL     1      56.628  53.689  72.781  0.00  0.00    +0.000 C 
ATOM     17  O2  UNL     1      55.460  53.313  73.062  0.00  0.00    +0.000 OA
ATOM     18  C14 UNL     1      57.389  54.720  73.523  0.00  0.00    +0.000 C 
ATOM     19  N4  UNL     1      58.560  55.001  72.665  0.00  0.00    +0.000 NA
ATOM     20  C24 UNL     1      58.571  53.999  71.576  0.00  0.00    +0.000 C 
ATOM     21  N5  UNL     1      60.648  56.564  70.382  0.00  0.00    +0.000 N 
ATOM     22  C25 UNL     1      60.965  55.231  70.280  0.00  0.00    +0.000 A 
ATOM     23  N6  UNL     1      61.989  54.701  70.997  0.00  0.00    +0.000 NA
ATOM     24  C26 UNL     1      62.735  55.486  71.816  0.00  0.00    +0.000 A 
ATOM     25  C27 UNL     1      63.792  54.926  72.542  0.00  0.00    +0.000 A 
ATOM     26  C28 UNL     1      64.556  55.726  73.397  0.00  0.00    +0.000 A 
ATOM     27  C29 UNL     1      64.265  57.087  73.533  0.00  0.00    +0.000 A 
ATOM     28  C30 UNL     1      63.209  57.656  72.814  0.00  0.00    +0.000 A 
ATOM     29  C31 UNL     1      62.436  56.861  71.948  0.00  0.00    +0.000 A 
ATOM     30  C32 UNL     1      61.359  57.387  71.208  0.00  0.00    +0.000 A 
ATOM     31  O3  UNL     1      61.048  58.604  71.312  0.00  0.00    +0.000 OA
ATOM     32  H4  UNL     1      60.172  54.611  67.200  0.00  0.00    +0.000 HD
ATOM     33  H21 UNL     1      59.461  54.946  73.196  0.00  0.00    +0.000 HD
ENDROOT
BRANCH  18  34
ATOM     34  C15 UNL     1      57.807  54.226  74.924  0.00  0.00    +0.000 C 
BRANCH  34  35
ATOM     35  C16 UNL     1      58.646  52.983  74.842  0.00  0.00    +0.000 A 
ATOM     36  C17 UNL     1      58.182  51.695  74.590  0.00  0.00    +0.000 A 
ATOM     37  N3  UNL     1      59.214  50.823  74.533  0.00  0.00    +0.000 N 
ATOM     38  C18 UNL     1      60.325  51.551  74.741  0.00  0.00    +0.000 A 
ATOM     39  C19 UNL     1      61.641  51.092  74.763  0.00  0.00    +0.000 A 
ATOM     40  C20 UNL     1      62.663  52.034  74.983  0.00  0.00    +0.000 A 
ATOM     41  C21 UNL     1      62.350  53.397  75.178  0.00  0.00    +0.000 A 
ATOM     42  C22 UNL     1      61.012  53.832  75.153  0.00  0.00    +0.000 A 
ATOM     43  C23 UNL     1      60.021  52.875  74.932  0.00  0.00    +0.000 A 
ATOM     44  H16 UNL     1      59.154  49.796  74.356  0.00  0.00    +0.000 HD
ENDBRANCH  34  35
ENDBRANCH  18  34
TORSDOF 2
ENDMDL
MODEL 8
REMARK VINA RESULT:    -7.944      1.939      6.705
REMARK INTER + INTRA:         -10.546
REMARK INTER:                  -8.936
REMARK INTRA:                  -1.611
REMARK UNBOUND:                -1.674
REMARK  Name = CNP0357158_1.pdb
REMARK  3 active torsions:
REMARK  status: ('A' for Active; 'I' for Inactive)
REMARK    1  A    between atoms: C1_1  and  C2_2
REMARK    2  A    between atoms: C14_18  and  C15_19
REMARK    3  A    between atoms: C15_19  and  C16_20
REMARK                            x       y       z     vdW  Elec       q    Type
REMARK                         _______ _______ _______ _____ _____    ______ ____
ROOT
ATOM      1  C1  UNL     1      60.919  50.723  72.542  0.00  0.00    +0.000 C 
ATOM      2  C2  UNL     1      59.967  51.775  73.146  0.00  0.00    +0.000 C 
ATOM      3  N1  UNL     1      59.033  51.125  74.090  0.00  0.00    +0.000 N 
ATOM      4  C3  UNL     1      58.020  51.995  74.611  0.00  0.00    +0.000 C 
ATOM      5  O1  UNL     1      57.138  51.597  75.415  0.00  0.00    +0.000 OA
ATOM      6  C4  UNL     1      58.117  53.410  74.117  0.00  0.00    +0.000 C 
ATOM      7  C5  UNL     1      59.520  53.882  74.586  0.00  0.00    +0.000 C 
ATOM      8  C6  UNL     1      60.661  52.987  73.906  0.00  0.00    +0.000 C 
ATOM      9  C7  UNL     1      61.640  52.536  74.968  0.00  0.00    +0.000 A 
ATOM     10  C8  UNL     1      61.415  51.715  76.081  0.00  0.00    +0.000 A 
ATOM     11  C9  UNL     1      62.460  51.512  76.996  0.00  0.00    +0.000 A 
ATOM     12  C10 UNL     1      63.701  52.144  76.806  0.00  0.00    +0.000 A 
ATOM     13  C11 UNL     1      63.900  52.991  75.706  0.00  0.00    +0.000 A 
ATOM     14  C12 UNL     1      62.847  53.169  74.807  0.00  0.00    +0.000 A 
ATOM     15  N2  UNL     1      62.857  54.001  73.665  0.00  0.00    +0.000 N 
ATOM     16  C13 UNL     1      63.137  55.379  73.690  0.00  0.00    +0.000 C 
ATOM     17  O2  UNL     1      64.085  55.883  74.349  0.00  0.00    +0.000 OA
ATOM     18  C14 UNL     1      62.132  56.150  72.925  0.00  0.00    +0.000 C 
ATOM     19  N4  UNL     1      61.096  55.155  72.571  0.00  0.00    +0.000 NA
ATOM     20  C24 UNL     1      61.612  53.819  72.941  0.00  0.00    +0.000 C 
ATOM     21  N5  UNL     1      58.150  53.330  72.637  0.00  0.00    +0.000 N 
ATOM     22  C25 UNL     1      59.080  52.462  72.119  0.00  0.00    +0.000 A 
ATOM     23  N6  UNL     1      59.242  52.332  70.777  0.00  0.00    +0.000 NA
ATOM     24  C26 UNL     1      58.470  53.046  69.918  0.00  0.00    +0.000 A 
ATOM     25  C27 UNL     1      58.644  52.895  68.538  0.00  0.00    +0.000 A 
ATOM     26  C28 UNL     1      57.861  53.637  67.648  0.00  0.00    +0.000 A 
ATOM     27  C29 UNL     1      56.905  54.535  68.133  0.00  0.00    +0.000 A 
ATOM     28  C30 UNL     1      56.726  54.695  69.511  0.00  0.00    +0.000 A 
ATOM     29  C31 UNL     1      57.505  53.951  70.415  0.00  0.00    +0.000 A 
ATOM     30  C32 UNL     1      57.365  54.083  71.810  0.00  0.00    +0.000 A 
ATOM     31  O3  UNL     1      56.529  54.893  72.294  0.00  0.00    +0.000 OA
ATOM     32  H4  UNL     1      59.088  50.114  74.352  0.00  0.00    +0.000 HD
ATOM     33  H21 UNL     1      60.867  55.168  71.550  0.00  0.00    +0.000 HD
ENDROOT
BRANCH  18  34
ATOM     34  C15 UNL     1      62.747  56.809  71.672  0.00  0.00    +0.000 C 
BRANCH  34  35
ATOM     35  C16 UNL     1      61.795  57.781  71.038  0.00  0.00    +0.000 A 
ATOM     36  C17 UNL     1      61.617  59.112  71.403  0.00  0.00    +0.000 A 
ATOM     37  N3  UNL     1      60.719  59.711  70.588  0.00  0.00    +0.000 N 
ATOM     38  C18 UNL     1      60.333  58.770  69.708  0.00  0.00    +0.000 A 
ATOM     39  C19 UNL     1      59.423  58.917  68.663  0.00  0.00    +0.000 A 
ATOM     40  C20 UNL     1      59.174  57.799  67.845  0.00  0.00    +0.000 A 
ATOM     41  C21 UNL     1      59.830  56.572  68.091  0.00  0.00    +0.000 A 
ATOM     42  C22 UNL     1      60.742  56.452  69.156  0.00  0.00    +0.000 A 
ATOM     43  C23 UNL     1      60.969  57.578  69.949  0.00  0.00    +0.000 A 
ATOM     44  H16 UNL     1      60.399  60.703  70.634  0.00  0.00    +0.000 HD
ENDBRANCH  34  35
ENDBRANCH  18  34
TORSDOF 2
ENDMDL
MODEL 9
REMARK VINA RESULT:    -7.873      2.433      7.329
REMARK INTER + INTRA:         -10.468
REMARK INTER:                  -8.936
REMARK INTRA:                  -1.532
REMARK UNBOUND:                -1.674
REMARK  Name = CNP0357158_1.pdb
REMARK  3 active torsions:
REMARK  status: ('A' for Active; 'I' for Inactive)
REMARK    1  A    between atoms: C1_1  and  C2_2
REMARK    2  A    between atoms: C14_18  and  C15_19
REMARK    3  A    between atoms: C15_19  and  C16_20
REMARK                            x       y       z     vdW  Elec       q    Type
REMARK                         _______ _______ _______ _____ _____    ______ ____
ROOT
ATOM      1  C1  UNL     1      64.046  54.757  73.555  0.00  0.00    +0.000 C 
ATOM      2  C2  UNL     1      63.427  53.401  73.155  0.00  0.00    +0.000 C 
ATOM      3  N1  UNL     1      64.499  52.425  72.867  0.00  0.00    +0.000 N 
ATOM      4  C3  UNL     1      64.032  51.169  72.360  0.00  0.00    +0.000 C 
ATOM      5  O1  UNL     1      64.814  50.233  72.051  0.00  0.00    +0.000 OA
ATOM      6  C4  UNL     1      62.538  51.075  72.242  0.00  0.00    +0.000 C 
ATOM      7  C5  UNL     1      62.027  51.290  73.693  0.00  0.00    +0.000 C 
ATOM      8  C6  UNL     1      62.443  52.745  74.216  0.00  0.00    +0.000 C 
ATOM      9  C7  UNL     1      63.058  52.621  75.594  0.00  0.00    +0.000 A 
ATOM     10  C8  UNL     1      64.229  51.956  75.980  0.00  0.00    +0.000 A 
ATOM     11  C9  UNL     1      64.552  51.890  77.344  0.00  0.00    +0.000 A 
ATOM     12  C10 UNL     1      63.699  52.461  78.304  0.00  0.00    +0.000 A 
ATOM     13  C11 UNL     1      62.512  53.094  77.905  0.00  0.00    +0.000 A 
ATOM     14  C12 UNL     1      62.218  53.154  76.541  0.00  0.00    +0.000 A 
ATOM     15  N2  UNL     1      61.062  53.723  75.962  0.00  0.00    +0.000 N 
ATOM     16  C13 UNL     1      59.747  53.345  76.282  0.00  0.00    +0.000 C 
ATOM     17  O2  UNL     1      59.344  53.161  77.461  0.00  0.00    +0.000 OA
ATOM     18  C14 UNL     1      58.940  53.110  75.064  0.00  0.00    +0.000 C 
ATOM     19  N4  UNL     1      59.914  53.195  73.955  0.00  0.00    +0.000 NA
ATOM     20  C24 UNL     1      61.193  53.680  74.517  0.00  0.00    +0.000 C 
ATOM     21  N5  UNL     1      62.111  52.251  71.445  0.00  0.00    +0.000 N 
ATOM     22  C25 UNL     1      62.591  53.460  71.885  0.00  0.00    +0.000 A 
ATOM     23  N6  UNL     1      62.237  54.617  71.270  0.00  0.00    +0.000 NA
ATOM     24  C26 UNL     1      61.413  54.599  70.191  0.00  0.00    +0.000 A 
ATOM     25  C27 UNL     1      61.062  55.799  69.562  0.00  0.00    +0.000 A 
ATOM     26  C28 UNL     1      60.204  55.787  68.459  0.00  0.00    +0.000 A 
ATOM     27  C29 UNL     1      59.689  54.578  67.981  0.00  0.00    +0.000 A 
ATOM     28  C30 UNL     1      60.031  53.374  68.604  0.00  0.00    +0.000 A 
ATOM     29  C31 UNL     1      60.897  53.373  69.712  0.00  0.00    +0.000 A 
ATOM     30  C32 UNL     1      61.264  52.186  70.376  0.00  0.00    +0.000 A 
ATOM     31  O3  UNL     1      60.811  51.074  69.992  0.00  0.00    +0.000 OA
ATOM     32  H4  UNL     1      65.516  52.627  73.004  0.00  0.00    +0.000 HD
ATOM     33  H21 UNL     1      59.597  53.847  73.199  0.00  0.00    +0.000 HD
ENDROOT
BRANCH  18  34
ATOM     34  C15 UNL     1      57.808  54.149  74.917  0.00  0.00    +0.000 C 
BRANCH  34  35
ATOM     35  C16 UNL     1      57.417  54.337  73.480  0.00  0.00    +0.000 A 
ATOM     36  C17 UNL     1      56.615  53.482  72.729  0.00  0.00    +0.000 A 
ATOM     37  N3  UNL     1      56.422  53.982  71.487  0.00  0.00    +0.000 N 
ATOM     38  C18 UNL     1      57.091  55.148  71.450  0.00  0.00    +0.000 A 
ATOM     39  C19 UNL     1      57.179  56.035  70.378  0.00  0.00    +0.000 A 
ATOM     40  C20 UNL     1      57.924  57.215  70.560  0.00  0.00    +0.000 A 
ATOM     41  C21 UNL     1      58.560  57.477  71.794  0.00  0.00    +0.000 A 
ATOM     42  C22 UNL     1      58.456  56.562  72.858  0.00  0.00    +0.000 A 
ATOM     43  C23 UNL     1      57.710  55.401  72.648  0.00  0.00    +0.000 A 
ATOM     44  H16 UNL     1      55.861  53.550  70.721  0.00  0.00    +0.000 HD
ENDBRANCH  34  35
ENDBRANCH  18  34
TORSDOF 2
ENDMDL
MODEL 10
REMARK VINA RESULT:    -7.725      2.607      4.077
REMARK INTER + INTRA:         -10.302
REMARK INTER:                  -8.592
REMARK INTRA:                  -1.710
REMARK UNBOUND:                -1.674
REMARK  Name = CNP0357158_1.pdb
REMARK  3 active torsions:
REMARK  status: ('A' for Active; 'I' for Inactive)
REMARK    1  A    between atoms: C1_1  and  C2_2
REMARK    2  A    between atoms: C14_18  and  C15_19
REMARK    3  A    between atoms: C15_19  and  C16_20
REMARK                            x       y       z     vdW  Elec       q    Type
REMARK                         _______ _______ _______ _____ _____    ______ ____
ROOT
ATOM      1  C1  UNL     1      61.936  57.548  71.741  0.00  0.00    +0.000 C 
ATOM      2  C2  UNL     1      60.685  56.701  72.052  0.00  0.00    +0.000 C 
ATOM      3  N1  UNL     1      59.613  57.567  72.587  0.00  0.00    +0.000 N 
ATOM      4  C3  UNL     1      58.448  56.858  73.030  0.00  0.00    +0.000 C 
ATOM      5  O1  UNL     1      57.449  57.443  73.524  0.00  0.00    +0.000 OA
ATOM      6  C4  UNL     1      58.530  55.370  72.842  0.00  0.00    +0.000 C 
ATOM      7  C5  UNL     1      58.717  55.189  71.311  0.00  0.00    +0.000 C 
ATOM      8  C6  UNL     1      60.082  55.875  70.835  0.00  0.00    +0.000 C 
ATOM      9  C7  UNL     1      59.811  56.732  69.617  0.00  0.00    +0.000 A 
ATOM     10  C8  UNL     1      58.997  57.866  69.502  0.00  0.00    +0.000 A 
ATOM     11  C9  UNL     1      58.815  58.444  68.236  0.00  0.00    +0.000 A 
ATOM     12  C10 UNL     1      59.422  57.875  67.103  0.00  0.00    +0.000 A 
ATOM     13  C11 UNL     1      60.207  56.719  67.229  0.00  0.00    +0.000 A 
ATOM     14  C12 UNL     1      60.378  56.169  68.501  0.00  0.00    +0.000 A 
ATOM     15  N2  UNL     1      61.107  54.999  68.812  0.00  0.00    +0.000 N 
ATOM     16  C13 UNL     1      60.862  53.738  68.242  0.00  0.00    +0.000 C 
ATOM     17  O2  UNL     1      60.656  53.559  67.013  0.00  0.00    +0.000 OA
ATOM     18  C14 UNL     1      60.790  52.682  69.277  0.00  0.00    +0.000 C 
ATOM     19  N4  UNL     1      60.830  53.419  70.558  0.00  0.00    +0.000 NA
ATOM     20  C24 UNL     1      61.134  54.834  70.253  0.00  0.00    +0.000 C 
ATOM     21  N5  UNL     1      59.791  54.940  73.495  0.00  0.00    +0.000 N 
ATOM     22  C25 UNL     1      60.911  55.642  73.121  0.00  0.00    +0.000 A 
ATOM     23  N6  UNL     1      62.135  55.317  73.611  0.00  0.00    +0.000 NA
ATOM     24  C26 UNL     1      62.272  54.299  74.499  0.00  0.00    +0.000 A 
ATOM     25  C27 UNL     1      63.538  53.979  75.001  0.00  0.00    +0.000 A 
ATOM     26  C28 UNL     1      63.687  52.924  75.906  0.00  0.00    +0.000 A 
ATOM     27  C29 UNL     1      62.574  52.180  76.309  0.00  0.00    +0.000 A 
ATOM     28  C30 UNL     1      61.305  52.489  75.811  0.00  0.00    +0.000 A 
ATOM     29  C31 UNL     1      61.141  53.552  74.904  0.00  0.00    +0.000 A 
ATOM     30  C32 UNL     1      59.885  53.896  74.370  0.00  0.00    +0.000 A 
ATOM     31  O3  UNL     1      58.855  53.243  74.690  0.00  0.00    +0.000 OA
ATOM     32  H4  UNL     1      59.689  58.608  72.654  0.00  0.00    +0.000 HD
ATOM     33  H21 UNL     1      61.556  53.040  71.210  0.00  0.00    +0.000 HD
ENDROOT
BRANCH  18  34
ATOM     34  C15 UNL     1      61.957  51.679  69.154  0.00  0.00    +0.000 C 
BRANCH  34  35
ATOM     35  C16 UNL     1      62.035  50.776  70.351  0.00  0.00    +0.000 A 
ATOM     36  C17 UNL     1      61.199  49.696  70.620  0.00  0.00    +0.000 A 
ATOM     37  N3  UNL     1      61.584  49.070  71.755  0.00  0.00    +0.000 N 
ATOM     38  C18 UNL     1      62.660  49.742  72.201  0.00  0.00    +0.000 A 
ATOM     39  C19 UNL     1      63.415  49.463  73.339  0.00  0.00    +0.000 A 
ATOM     40  C20 UNL     1      64.520  50.289  73.614  0.00  0.00    +0.000 A 
ATOM     41  C21 UNL     1      64.839  51.366  72.758  0.00  0.00    +0.000 A 
ATOM     42  C22 UNL     1      64.057  51.626  71.617  0.00  0.00    +0.000 A 
ATOM     43  C23 UNL     1      62.968  50.789  71.370  0.00  0.00    +0.000 A 
ATOM     44  H16 UNL     1      61.137  48.232  72.188  0.00  0.00    +0.000 HD
ENDBRANCH  34  35
ENDBRANCH  18  34
TORSDOF 2
ENDMDL
