MODEL 1
REMARK VINA RESULT:    -6.319      0.000      0.000
REMARK INTER + INTRA:          -9.263
REMARK INTER:                  -7.612
REMARK INTRA:                  -1.651
REMARK UNBOUND:                -1.651
REMARK  Name = CNP0080599_0.pdb
REMARK  6 active torsions:
REMARK  status: ('A' for Active; 'I' for Inactive)
REMARK    1  A    between atoms: C1_1  and  C2_2
REMARK    2  A    between atoms: C2_2  and  C3_3
REMARK    3  A    between atoms: C12_12  and  C13_13
REMARK    4  A    between atoms: C13_13  and  C14_14
REMARK    5  A    between atoms: C14_14  and  N1_15
REMARK    6  A    between atoms: N2_24  and  O2_25
REMARK                            x       y       z     vdW  Elec       q    Type
REMARK                         _______ _______ _______ _____ _____    ______ ____
ROOT
ATOM      1  C1  UNL     1      21.578  39.122  38.502  0.00  0.00    +0.000 C 
ATOM      2  C2  UNL     1      20.056  39.275  38.604  0.00  0.00    +0.000 C 
ATOM      3  C3  UNL     1      19.668  39.722  40.018  0.00  0.00    +0.000 C 
ATOM      4  C4  UNL     1      19.403  37.942  38.295  0.00  0.00    +0.000 C 
ATOM      5  C5  UNL     1      18.952  37.648  37.072  0.00  0.00    +0.000 C 
ATOM      6  C6  UNL     1      18.960  38.662  35.998  0.00  0.00    +0.000 A 
ATOM      7  C7  UNL     1      19.265  39.994  36.361  0.00  0.00    +0.000 A 
ATOM      8  C8  UNL     1      19.193  41.035  35.417  0.00  0.00    +0.000 A 
ATOM      9  C9  UNL     1      18.844  40.765  34.089  0.00  0.00    +0.000 A 
ATOM     10  C10 UNL     1      18.573  39.446  33.735  0.00  0.00    +0.000 A 
ATOM     11  C11 UNL     1      18.625  38.411  34.647  0.00  0.00    +0.000 A 
ATOM     12  C12 UNL     1      18.349  37.252  33.915  0.00  0.00    +0.000 A 
ATOM     13  C23 UNL     1      18.147  37.669  32.603  0.00  0.00    +0.000 A 
ATOM     14  N3  UNL     1      18.277  39.005  32.502  0.00  0.00    +0.000 N 
ATOM     15  O4  UNL     1      19.629  40.284  37.679  0.00  0.00    +0.000 OA
ATOM     16  H21 UNL     1      18.197  39.575  31.630  0.00  0.00    +0.000 HD
ENDROOT
BRANCH  12  17
ATOM     17  C13 UNL     1      18.408  35.805  34.322  0.00  0.00    +0.000 C 
BRANCH  17  18
ATOM     18  C14 UNL     1      19.774  35.170  34.013  0.00  0.00    +0.000 C 
BRANCH  18  19
ATOM     19  N1  UNL     1      20.743  35.425  35.103  0.00  0.00    +0.000 N 
ATOM     20  C15 UNL     1      20.684  34.681  36.251  0.00  0.00    +0.000 A 
ATOM     21  O1  UNL     1      19.777  33.813  36.397  0.00  0.00    +0.000 OA
ATOM     22  C16 UNL     1      21.633  34.870  37.266  0.00  0.00    +0.000 A 
ATOM     23  C17 UNL     1      21.600  34.102  38.448  0.00  0.00    +0.000 A 
ATOM     24  C18 UNL     1      22.565  34.286  39.435  0.00  0.00    +0.000 A 
ATOM     25  C19 UNL     1      23.575  35.226  39.255  0.00  0.00    +0.000 A 
ATOM     26  C20 UNL     1      23.622  35.997  38.092  0.00  0.00    +0.000 A 
ATOM     27  C21 UNL     1      22.642  35.844  37.082  0.00  0.00    +0.000 A 
ATOM     28  N2  UNL     1      22.650  36.594  35.930  0.00  0.00    +0.000 N 
ATOM     29  C22 UNL     1      21.722  36.375  34.952  0.00  0.00    +0.000 A 
ATOM     30  O3  UNL     1      21.773  37.070  33.898  0.00  0.00    +0.000 OA
BRANCH  28  31
ATOM     31  O2  UNL     1      23.571  37.603  35.696  0.00  0.00    +0.000 OA
ATOM     32  H19 UNL     1      23.595  38.169  34.863  0.00  0.00    +0.000 HD
ENDBRANCH  28  31
ENDBRANCH  18  19
ENDBRANCH  17  18
ENDBRANCH  12  17
TORSDOF 4
ENDMDL
MODEL 2
REMARK VINA RESULT:    -6.305     12.075     14.578
REMARK INTER + INTRA:          -9.246
REMARK INTER:                  -8.091
REMARK INTRA:                  -1.156
REMARK UNBOUND:                -1.651
REMARK  Name = CNP0080599_0.pdb
REMARK  6 active torsions:
REMARK  status: ('A' for Active; 'I' for Inactive)
REMARK    1  A    between atoms: C1_1  and  C2_2
REMARK    2  A    between atoms: C2_2  and  C3_3
REMARK    3  A    between atoms: C12_12  and  C13_13
REMARK    4  A    between atoms: C13_13  and  C14_14
REMARK    5  A    between atoms: C14_14  and  N1_15
REMARK    6  A    between atoms: N2_24  and  O2_25
REMARK                            x       y       z     vdW  Elec       q    Type
REMARK                         _______ _______ _______ _____ _____    ______ ____
ROOT
ATOM      1  C1  UNL     1      25.206  46.117  36.354  0.00  0.00    +0.000 C 
ATOM      2  C2  UNL     1      25.424  46.093  34.836  0.00  0.00    +0.000 C 
ATOM      3  C3  UNL     1      25.866  44.694  34.393  0.00  0.00    +0.000 C 
ATOM      4  C4  UNL     1      26.496  47.103  34.474  0.00  0.00    +0.000 C 
ATOM      5  C5  UNL     1      26.187  48.338  34.070  0.00  0.00    +0.000 C 
ATOM      6  C6  UNL     1      24.781  48.731  33.839  0.00  0.00    +0.000 A 
ATOM      7  C7  UNL     1      23.806  47.709  33.863  0.00  0.00    +0.000 A 
ATOM      8  C8  UNL     1      22.462  47.983  33.552  0.00  0.00    +0.000 A 
ATOM      9  C9  UNL     1      22.059  49.287  33.240  0.00  0.00    +0.000 A 
ATOM     10  C10 UNL     1      23.022  50.293  33.247  0.00  0.00    +0.000 A 
ATOM     11  C11 UNL     1      24.349  50.043  33.537  0.00  0.00    +0.000 A 
ATOM     12  C12 UNL     1      24.982  51.289  33.497  0.00  0.00    +0.000 A 
ATOM     13  C23 UNL     1      23.989  52.212  33.183  0.00  0.00    +0.000 A 
ATOM     14  N3  UNL     1      22.801  51.599  33.025  0.00  0.00    +0.000 N 
ATOM     15  O4  UNL     1      24.184  46.402  34.186  0.00  0.00    +0.000 OA
ATOM     16  H21 UNL     1      21.887  52.055  32.807  0.00  0.00    +0.000 HD
ENDROOT
BRANCH  12  17
ATOM     17  C13 UNL     1      26.386  51.682  33.870  0.00  0.00    +0.000 C 
BRANCH  17  18
ATOM     18  C14 UNL     1      27.199  52.155  32.654  0.00  0.00    +0.000 C 
BRANCH  18  19
ATOM     19  N1  UNL     1      27.935  51.032  32.031  0.00  0.00    +0.000 N 
ATOM     20  C15 UNL     1      27.400  50.388  30.948  0.00  0.00    +0.000 A 
ATOM     21  O1  UNL     1      26.262  50.721  30.513  0.00  0.00    +0.000 OA
ATOM     22  C16 UNL     1      28.114  49.363  30.310  0.00  0.00    +0.000 A 
ATOM     23  C17 UNL     1      27.588  48.700  29.184  0.00  0.00    +0.000 A 
ATOM     24  C18 UNL     1      28.321  47.701  28.547  0.00  0.00    +0.000 A 
ATOM     25  C19 UNL     1      29.585  47.359  29.017  0.00  0.00    +0.000 A 
ATOM     26  C20 UNL     1      30.121  48.004  30.134  0.00  0.00    +0.000 A 
ATOM     27  C21 UNL     1      29.389  49.008  30.811  0.00  0.00    +0.000 A 
ATOM     28  N2  UNL     1      29.880  49.656  31.919  0.00  0.00    +0.000 N 
ATOM     29  C22 UNL     1      29.168  50.661  32.509  0.00  0.00    +0.000 A 
ATOM     30  O3  UNL     1      29.660  51.247  33.514  0.00  0.00    +0.000 OA
BRANCH  28  31
ATOM     31  O2  UNL     1      31.094  49.331  32.503  0.00  0.00    +0.000 OA
ATOM     32  H19 UNL     1      31.484  48.402  32.526  0.00  0.00    +0.000 HD
ENDBRANCH  28  31
ENDBRANCH  18  19
ENDBRANCH  17  18
ENDBRANCH  12  17
TORSDOF 4
ENDMDL
MODEL 3
REMARK VINA RESULT:    -6.279      6.658     10.218
REMARK INTER + INTRA:          -9.215
REMARK INTER:                  -8.677
REMARK INTRA:                  -0.538
REMARK UNBOUND:                -1.651
REMARK  Name = CNP0080599_0.pdb
REMARK  6 active torsions:
REMARK  status: ('A' for Active; 'I' for Inactive)
REMARK    1  A    between atoms: C1_1  and  C2_2
REMARK    2  A    between atoms: C2_2  and  C3_3
REMARK    3  A    between atoms: C12_12  and  C13_13
REMARK    4  A    between atoms: C13_13  and  C14_14
REMARK    5  A    between atoms: C14_14  and  N1_15
REMARK    6  A    between atoms: N2_24  and  O2_25
REMARK                            x       y       z     vdW  Elec       q    Type
REMARK                         _______ _______ _______ _____ _____    ______ ____
ROOT
ATOM      1  C1  UNL     1      24.517  32.504  38.303  0.00  0.00    +0.000 C 
ATOM      2  C2  UNL     1      23.924  33.914  38.418  0.00  0.00    +0.000 C 
ATOM      3  C3  UNL     1      22.452  33.900  37.995  0.00  0.00    +0.000 C 
ATOM      4  C4  UNL     1      24.703  34.853  37.517  0.00  0.00    +0.000 C 
ATOM      5  C5  UNL     1      25.706  35.603  37.985  0.00  0.00    +0.000 C 
ATOM      6  C6  UNL     1      26.016  35.639  39.429  0.00  0.00    +0.000 A 
ATOM      7  C7  UNL     1      25.098  35.022  40.308  0.00  0.00    +0.000 A 
ATOM      8  C8  UNL     1      25.267  35.101  41.703  0.00  0.00    +0.000 A 
ATOM      9  C9  UNL     1      26.369  35.771  42.246  0.00  0.00    +0.000 A 
ATOM     10  C10 UNL     1      27.284  36.351  41.370  0.00  0.00    +0.000 A 
ATOM     11  C11 UNL     1      27.130  36.296  39.999  0.00  0.00    +0.000 A 
ATOM     12  C12 UNL     1      28.257  36.933  39.471  0.00  0.00    +0.000 A 
ATOM     13  C23 UNL     1      29.019  37.332  40.565  0.00  0.00    +0.000 A 
ATOM     14  N3  UNL     1      28.417  36.981  41.717  0.00  0.00    +0.000 N 
ATOM     15  O4  UNL     1      23.997  34.335  39.787  0.00  0.00    +0.000 OA
ATOM     16  H21 UNL     1      28.780  37.140  42.684  0.00  0.00    +0.000 HD
ENDROOT
BRANCH  12  17
ATOM     17  C13 UNL     1      28.729  37.056  38.047  0.00  0.00    +0.000 C 
BRANCH  17  18
ATOM     18  C14 UNL     1      30.227  37.390  37.959  0.00  0.00    +0.000 C 
BRANCH  18  19
ATOM     19  N1  UNL     1      30.489  38.411  36.919  0.00  0.00    +0.000 N 
ATOM     20  C15 UNL     1      30.861  38.018  35.661  0.00  0.00    +0.000 A 
ATOM     21  O1  UNL     1      31.026  36.792  35.404  0.00  0.00    +0.000 OA
ATOM     22  C16 UNL     1      31.053  38.971  34.650  0.00  0.00    +0.000 A 
ATOM     23  C17 UNL     1      31.420  38.586  33.345  0.00  0.00    +0.000 A 
ATOM     24  C18 UNL     1      31.582  39.543  32.346  0.00  0.00    +0.000 A 
ATOM     25  C19 UNL     1      31.373  40.889  32.632  0.00  0.00    +0.000 A 
ATOM     26  C20 UNL     1      31.012  41.289  33.920  0.00  0.00    +0.000 A 
ATOM     27  C21 UNL     1      30.860  40.339  34.958  0.00  0.00    +0.000 A 
ATOM     28  N2  UNL     1      30.517  40.697  36.240  0.00  0.00    +0.000 N 
ATOM     29  C22 UNL     1      30.322  39.744  37.199  0.00  0.00    +0.000 A 
ATOM     30  O3  UNL     1      29.987  40.110  38.361  0.00  0.00    +0.000 OA
BRANCH  28  31
ATOM     31  O2  UNL     1      30.362  42.017  36.635  0.00  0.00    +0.000 OA
ATOM     32  H19 UNL     1      29.515  42.397  37.028  0.00  0.00    +0.000 HD
ENDBRANCH  28  31
ENDBRANCH  18  19
ENDBRANCH  17  18
ENDBRANCH  12  17
TORSDOF 4
ENDMDL
MODEL 4
REMARK VINA RESULT:    -6.126      0.870      2.137
REMARK INTER + INTRA:          -9.030
REMARK INTER:                  -7.402
REMARK INTRA:                  -1.627
REMARK UNBOUND:                -1.651
REMARK  Name = CNP0080599_0.pdb
REMARK  6 active torsions:
REMARK  status: ('A' for Active; 'I' for Inactive)
REMARK    1  A    between atoms: C1_1  and  C2_2
REMARK    2  A    between atoms: C2_2  and  C3_3
REMARK    3  A    between atoms: C12_12  and  C13_13
REMARK    4  A    between atoms: C13_13  and  C14_14
REMARK    5  A    between atoms: C14_14  and  N1_15
REMARK    6  A    between atoms: N2_24  and  O2_25
REMARK                            x       y       z     vdW  Elec       q    Type
REMARK                         _______ _______ _______ _____ _____    ______ ____
ROOT
ATOM      1  C1  UNL     1      21.555  38.900  38.521  0.00  0.00    +0.000 C 
ATOM      2  C2  UNL     1      20.043  39.155  38.581  0.00  0.00    +0.000 C 
ATOM      3  C3  UNL     1      19.654  39.669  39.971  0.00  0.00    +0.000 C 
ATOM      4  C4  UNL     1      19.312  37.859  38.294  0.00  0.00    +0.000 C 
ATOM      5  C5  UNL     1      18.870  37.558  37.069  0.00  0.00    +0.000 C 
ATOM      6  C6  UNL     1      18.969  38.537  35.967  0.00  0.00    +0.000 A 
ATOM      7  C7  UNL     1      19.353  39.856  36.299  0.00  0.00    +0.000 A 
ATOM      8  C8  UNL     1      19.372  40.870  35.324  0.00  0.00    +0.000 A 
ATOM      9  C9  UNL     1      19.036  40.583  33.996  0.00  0.00    +0.000 A 
ATOM     10  C10 UNL     1      18.687  39.275  33.673  0.00  0.00    +0.000 A 
ATOM     11  C11 UNL     1      18.650  38.266  34.616  0.00  0.00    +0.000 A 
ATOM     12  C12 UNL     1      18.315  37.106  33.911  0.00  0.00    +0.000 A 
ATOM     13  C23 UNL     1      18.170  37.496  32.583  0.00  0.00    +0.000 A 
ATOM     14  N3  UNL     1      18.391  38.817  32.446  0.00  0.00    +0.000 N 
ATOM     15  O4  UNL     1      19.706  40.161  37.616  0.00  0.00    +0.000 OA
ATOM     16  H21 UNL     1      18.369  39.365  31.557  0.00  0.00    +0.000 HD
ENDROOT
BRANCH  12  17
ATOM     17  C13 UNL     1      18.269  35.672  34.361  0.00  0.00    +0.000 C 
BRANCH  17  18
ATOM     18  C14 UNL     1      19.569  34.919  34.035  0.00  0.00    +0.000 C 
BRANCH  18  19
ATOM     19  N1  UNL     1      20.408  34.749  35.243  0.00  0.00    +0.000 N 
ATOM     20  C15 UNL     1      21.469  35.587  35.456  0.00  0.00    +0.000 A 
ATOM     21  O1  UNL     1      21.759  36.471  34.601  0.00  0.00    +0.000 OA
ATOM     22  C16 UNL     1      22.235  35.476  36.626  0.00  0.00    +0.000 A 
ATOM     23  C17 UNL     1      23.320  36.341  36.871  0.00  0.00    +0.000 A 
ATOM     24  C18 UNL     1      24.055  36.234  38.050  0.00  0.00    +0.000 A 
ATOM     25  C19 UNL     1      23.713  35.275  38.998  0.00  0.00    +0.000 A 
ATOM     26  C20 UNL     1      22.642  34.408  38.770  0.00  0.00    +0.000 A 
ATOM     27  C21 UNL     1      21.892  34.483  37.573  0.00  0.00    +0.000 A 
ATOM     28  N2  UNL     1      20.839  33.639  37.310  0.00  0.00    +0.000 N 
ATOM     29  C22 UNL     1      20.102  33.782  36.169  0.00  0.00    +0.000 A 
ATOM     30  O3  UNL     1      19.129  33.001  35.971  0.00  0.00    +0.000 OA
BRANCH  28  31
ATOM     31  O2  UNL     1      20.473  32.607  38.160  0.00  0.00    +0.000 OA
ATOM     32  H19 UNL     1      19.818  31.879  37.921  0.00  0.00    +0.000 HD
ENDBRANCH  28  31
ENDBRANCH  18  19
ENDBRANCH  17  18
ENDBRANCH  12  17
TORSDOF 4
ENDMDL
MODEL 5
REMARK VINA RESULT:    -6.110      2.480      4.819
REMARK INTER + INTRA:          -9.011
REMARK INTER:                  -8.939
REMARK INTRA:                  -0.072
REMARK UNBOUND:                -1.651
REMARK  Name = CNP0080599_0.pdb
REMARK  6 active torsions:
REMARK  status: ('A' for Active; 'I' for Inactive)
REMARK    1  A    between atoms: C1_1  and  C2_2
REMARK    2  A    between atoms: C2_2  and  C3_3
REMARK    3  A    between atoms: C12_12  and  C13_13
REMARK    4  A    between atoms: C13_13  and  C14_14
REMARK    5  A    between atoms: C14_14  and  N1_15
REMARK    6  A    between atoms: N2_24  and  O2_25
REMARK                            x       y       z     vdW  Elec       q    Type
REMARK                         _______ _______ _______ _____ _____    ______ ____
ROOT
ATOM      1  C1  UNL     1      16.395  37.376  33.610  0.00  0.00    +0.000 C 
ATOM      2  C2  UNL     1      17.913  37.259  33.419  0.00  0.00    +0.000 C 
ATOM      3  C3  UNL     1      18.226  36.765  32.003  0.00  0.00    +0.000 C 
ATOM      4  C4  UNL     1      18.464  36.277  34.434  0.00  0.00    +0.000 C 
ATOM      5  C5  UNL     1      18.982  36.685  35.596  0.00  0.00    +0.000 C 
ATOM      6  C6  UNL     1      19.152  38.124  35.886  0.00  0.00    +0.000 A 
ATOM      7  C7  UNL     1      18.941  39.032  34.824  0.00  0.00    +0.000 A 
ATOM      8  C8  UNL     1      19.181  40.409  34.991  0.00  0.00    +0.000 A 
ATOM      9  C9  UNL     1      19.609  40.909  36.227  0.00  0.00    +0.000 A 
ATOM     10  C10 UNL     1      19.786  40.009  37.275  0.00  0.00    +0.000 A 
ATOM     11  C11 UNL     1      19.568  38.654  37.130  0.00  0.00    +0.000 A 
ATOM     12  C12 UNL     1      19.795  38.101  38.394  0.00  0.00    +0.000 A 
ATOM     13  C23 UNL     1      20.138  39.166  39.220  0.00  0.00    +0.000 A 
ATOM     14  N3  UNL     1      20.137  40.323  38.532  0.00  0.00    +0.000 N 
ATOM     15  O4  UNL     1      18.501  38.556  33.586  0.00  0.00    +0.000 OA
ATOM     16  H21 UNL     1      20.338  41.275  38.912  0.00  0.00    +0.000 HD
ENDROOT
BRANCH  12  17
ATOM     17  C13 UNL     1      19.573  36.701  38.899  0.00  0.00    +0.000 C 
BRANCH  17  18
ATOM     18  C14 UNL     1      20.341  35.656  38.073  0.00  0.00    +0.000 C 
BRANCH  18  19
ATOM     19  N1  UNL     1      21.376  34.982  38.889  0.00  0.00    +0.000 N 
ATOM     20  C15 UNL     1      22.664  35.445  38.870  0.00  0.00    +0.000 A 
ATOM     21  O1  UNL     1      22.976  36.415  38.122  0.00  0.00    +0.000 OA
ATOM     22  C16 UNL     1      23.641  34.855  39.684  0.00  0.00    +0.000 A 
ATOM     23  C17 UNL     1      24.968  35.328  39.691  0.00  0.00    +0.000 A 
ATOM     24  C18 UNL     1      25.920  34.746  40.525  0.00  0.00    +0.000 A 
ATOM     25  C19 UNL     1      25.561  33.696  41.364  0.00  0.00    +0.000 A 
ATOM     26  C20 UNL     1      24.251  33.211  41.368  0.00  0.00    +0.000 A 
ATOM     27  C21 UNL     1      23.270  33.772  40.517  0.00  0.00    +0.000 A 
ATOM     28  N2  UNL     1      21.974  33.314  40.486  0.00  0.00    +0.000 N 
ATOM     29  C22 UNL     1      21.041  33.921  39.694  0.00  0.00    +0.000 A 
ATOM     30  O3  UNL     1      19.855  33.485  39.707  0.00  0.00    +0.000 OA
BRANCH  28  31
ATOM     31  O2  UNL     1      21.544  32.226  41.230  0.00  0.00    +0.000 OA
ATOM     32  H19 UNL     1      20.748  31.655  40.993  0.00  0.00    +0.000 HD
ENDBRANCH  28  31
ENDBRANCH  18  19
ENDBRANCH  17  18
ENDBRANCH  12  17
TORSDOF 4
ENDMDL
MODEL 6
REMARK VINA RESULT:    -6.095      2.271      6.009
REMARK INTER + INTRA:          -8.994
REMARK INTER:                  -7.148
REMARK INTRA:                  -1.846
REMARK UNBOUND:                -1.651
REMARK  Name = CNP0080599_0.pdb
REMARK  6 active torsions:
REMARK  status: ('A' for Active; 'I' for Inactive)
REMARK    1  A    between atoms: C1_1  and  C2_2
REMARK    2  A    between atoms: C2_2  and  C3_3
REMARK    3  A    between atoms: C12_12  and  C13_13
REMARK    4  A    between atoms: C13_13  and  C14_14
REMARK    5  A    between atoms: C14_14  and  N1_15
REMARK    6  A    between atoms: N2_24  and  O2_25
REMARK                            x       y       z     vdW  Elec       q    Type
REMARK                         _______ _______ _______ _____ _____    ______ ____
ROOT
ATOM      1  C1  UNL     1      19.560  37.024  32.629  0.00  0.00    +0.000 C 
ATOM      2  C2  UNL     1      18.349  36.545  33.439  0.00  0.00    +0.000 C 
ATOM      3  C3  UNL     1      17.111  36.476  32.539  0.00  0.00    +0.000 C 
ATOM      4  C4  UNL     1      18.098  37.516  34.576  0.00  0.00    +0.000 C 
ATOM      5  C5  UNL     1      18.579  37.299  35.803  0.00  0.00    +0.000 C 
ATOM      6  C6  UNL     1      19.272  36.037  36.134  0.00  0.00    +0.000 A 
ATOM      7  C7  UNL     1      19.227  34.999  35.176  0.00  0.00    +0.000 A 
ATOM      8  C8  UNL     1      19.773  33.732  35.455  0.00  0.00    +0.000 A 
ATOM      9  C9  UNL     1      20.399  33.486  36.682  0.00  0.00    +0.000 A 
ATOM     10  C10 UNL     1      20.464  34.524  37.608  0.00  0.00    +0.000 A 
ATOM     11  C11 UNL     1      19.923  35.770  37.360  0.00  0.00    +0.000 A 
ATOM     12  C12 UNL     1      20.231  36.542  38.484  0.00  0.00    +0.000 A 
ATOM     13  C23 UNL     1      20.939  35.704  39.341  0.00  0.00    +0.000 A 
ATOM     14  N3  UNL     1      21.071  34.476  38.805  0.00  0.00    +0.000 N 
ATOM     15  O4  UNL     1      18.619  35.227  33.938  0.00  0.00    +0.000 OA
ATOM     16  H21 UNL     1      21.575  33.663  39.225  0.00  0.00    +0.000 HD
ENDROOT
BRANCH  12  17
ATOM     17  C13 UNL     1      20.041  38.013  38.738  0.00  0.00    +0.000 C 
BRANCH  17  18
ATOM     18  C14 UNL     1      21.319  38.820  38.461  0.00  0.00    +0.000 C 
BRANCH  18  19
ATOM     19  N1  UNL     1      21.362  39.292  37.058  0.00  0.00    +0.000 N 
ATOM     20  C15 UNL     1      22.088  38.596  36.130  0.00  0.00    +0.000 A 
ATOM     21  O1  UNL     1      22.755  37.581  36.480  0.00  0.00    +0.000 OA
ATOM     22  C16 UNL     1      22.088  38.996  34.786  0.00  0.00    +0.000 A 
ATOM     23  C17 UNL     1      22.815  38.282  33.812  0.00  0.00    +0.000 A 
ATOM     24  C18 UNL     1      22.784  38.679  32.477  0.00  0.00    +0.000 A 
ATOM     25  C19 UNL     1      22.026  39.782  32.097  0.00  0.00    +0.000 A 
ATOM     26  C20 UNL     1      21.302  40.504  33.049  0.00  0.00    +0.000 A 
ATOM     27  C21 UNL     1      21.332  40.133  34.414  0.00  0.00    +0.000 A 
ATOM     28  N2  UNL     1      20.641  40.826  35.380  0.00  0.00    +0.000 N 
ATOM     29  C22 UNL     1      20.647  40.401  36.678  0.00  0.00    +0.000 A 
ATOM     30  O3  UNL     1      19.984  41.052  37.535  0.00  0.00    +0.000 OA
BRANCH  28  31
ATOM     31  O2  UNL     1      19.921  41.978  35.108  0.00  0.00    +0.000 OA
ATOM     32  H19 UNL     1      19.430  42.520  35.802  0.00  0.00    +0.000 HD
ENDBRANCH  28  31
ENDBRANCH  18  19
ENDBRANCH  17  18
ENDBRANCH  12  17
TORSDOF 4
ENDMDL
MODEL 7
REMARK VINA RESULT:    -6.076      2.114      4.280
REMARK INTER + INTRA:          -8.970
REMARK INTER:                  -7.677
REMARK INTRA:                  -1.293
REMARK UNBOUND:                -1.651
REMARK  Name = CNP0080599_0.pdb
REMARK  6 active torsions:
REMARK  status: ('A' for Active; 'I' for Inactive)
REMARK    1  A    between atoms: C1_1  and  C2_2
REMARK    2  A    between atoms: C2_2  and  C3_3
REMARK    3  A    between atoms: C12_12  and  C13_13
REMARK    4  A    between atoms: C13_13  and  C14_14
REMARK    5  A    between atoms: C14_14  and  N1_15
REMARK    6  A    between atoms: N2_24  and  O2_25
REMARK                            x       y       z     vdW  Elec       q    Type
REMARK                         _______ _______ _______ _____ _____    ______ ____
ROOT
ATOM      1  C1  UNL     1      16.655  37.146  33.690  0.00  0.00    +0.000 C 
ATOM      2  C2  UNL     1      18.183  37.020  33.654  0.00  0.00    +0.000 C 
ATOM      3  C3  UNL     1      18.624  36.374  32.337  0.00  0.00    +0.000 C 
ATOM      4  C4  UNL     1      18.636  36.163  34.819  0.00  0.00    +0.000 C 
ATOM      5  C5  UNL     1      19.046  36.703  35.971  0.00  0.00    +0.000 C 
ATOM      6  C6  UNL     1      19.192  38.166  36.111  0.00  0.00    +0.000 A 
ATOM      7  C7  UNL     1      19.082  38.948  34.939  0.00  0.00    +0.000 A 
ATOM      8  C8  UNL     1      19.310  40.336  34.972  0.00  0.00    +0.000 A 
ATOM      9  C9  UNL     1      19.623  40.975  36.177  0.00  0.00    +0.000 A 
ATOM     10  C10 UNL     1      19.700  40.200  37.331  0.00  0.00    +0.000 A 
ATOM     11  C11 UNL     1      19.494  38.835  37.320  0.00  0.00    +0.000 A 
ATOM     12  C12 UNL     1      19.602  38.429  38.654  0.00  0.00    +0.000 A 
ATOM     13  C23 UNL     1      19.870  39.583  39.384  0.00  0.00    +0.000 A 
ATOM     14  N3  UNL     1      19.936  40.656  38.573  0.00  0.00    +0.000 N 
ATOM     15  O4  UNL     1      18.757  38.333  33.727  0.00  0.00    +0.000 OA
ATOM     16  H21 UNL     1      20.103  41.646  38.860  0.00  0.00    +0.000 HD
ENDROOT
BRANCH  12  17
ATOM     17  C13 UNL     1      19.331  37.093  39.291  0.00  0.00    +0.000 C 
BRANCH  17  18
ATOM     18  C14 UNL     1      20.625  36.365  39.689  0.00  0.00    +0.000 C 
BRANCH  18  19
ATOM     19  N1  UNL     1      21.105  35.488  38.597  0.00  0.00    +0.000 N 
ATOM     20  C15 UNL     1      20.563  34.241  38.441  0.00  0.00    +0.000 A 
ATOM     21  O1  UNL     1      19.691  33.824  39.255  0.00  0.00    +0.000 OA
ATOM     22  C16 UNL     1      20.964  33.423  37.375  0.00  0.00    +0.000 A 
ATOM     23  C17 UNL     1      20.406  32.143  37.187  0.00  0.00    +0.000 A 
ATOM     24  C18 UNL     1      20.797  31.354  36.108  0.00  0.00    +0.000 A 
ATOM     25  C19 UNL     1      21.739  31.831  35.202  0.00  0.00    +0.000 A 
ATOM     26  C20 UNL     1      22.306  33.096  35.374  0.00  0.00    +0.000 A 
ATOM     27  C21 UNL     1      21.939  33.910  36.472  0.00  0.00    +0.000 A 
ATOM     28  N2  UNL     1      22.484  35.156  36.679  0.00  0.00    +0.000 N 
ATOM     29  C22 UNL     1      22.061  35.935  37.718  0.00  0.00    +0.000 A 
ATOM     30  O3  UNL     1      22.569  37.082  37.865  0.00  0.00    +0.000 OA
BRANCH  28  31
ATOM     31  O2  UNL     1      23.481  35.683  35.874  0.00  0.00    +0.000 OA
ATOM     32  H19 UNL     1      24.156  35.130  35.370  0.00  0.00    +0.000 HD
ENDBRANCH  28  31
ENDBRANCH  18  19
ENDBRANCH  17  18
ENDBRANCH  12  17
TORSDOF 4
ENDMDL
MODEL 8
REMARK VINA RESULT:    -6.070     14.893     18.013
REMARK INTER + INTRA:          -8.963
REMARK INTER:                  -8.305
REMARK INTRA:                  -0.657
REMARK UNBOUND:                -1.651
REMARK  Name = CNP0080599_0.pdb
REMARK  6 active torsions:
REMARK  status: ('A' for Active; 'I' for Inactive)
REMARK    1  A    between atoms: C1_1  and  C2_2
REMARK    2  A    between atoms: C2_2  and  C3_3
REMARK    3  A    between atoms: C12_12  and  C13_13
REMARK    4  A    between atoms: C13_13  and  C14_14
REMARK    5  A    between atoms: C14_14  and  N1_15
REMARK    6  A    between atoms: N2_24  and  O2_25
REMARK                            x       y       z     vdW  Elec       q    Type
REMARK                         _______ _______ _______ _____ _____    ______ ____
ROOT
ATOM      1  C1  UNL     1      16.263  53.274  46.479  0.00  0.00    +0.000 C 
ATOM      2  C2  UNL     1      16.392  51.831  45.976  0.00  0.00    +0.000 C 
ATOM      3  C3  UNL     1      17.807  51.587  45.442  0.00  0.00    +0.000 C 
ATOM      4  C4  UNL     1      15.382  51.602  44.868  0.00  0.00    +0.000 C 
ATOM      5  C5  UNL     1      14.188  51.054  45.109  0.00  0.00    +0.000 C 
ATOM      6  C6  UNL     1      13.850  50.533  46.450  0.00  0.00    +0.000 A 
ATOM      7  C7  UNL     1      14.894  50.450  47.399  0.00  0.00    +0.000 A 
ATOM      8  C8  UNL     1      14.678  49.871  48.663  0.00  0.00    +0.000 A 
ATOM      9  C9  UNL     1      13.411  49.390  49.015  0.00  0.00    +0.000 A 
ATOM     10  C10 UNL     1      12.382  49.502  48.084  0.00  0.00    +0.000 A 
ATOM     11  C11 UNL     1      12.575  50.055  46.833  0.00  0.00    +0.000 A 
ATOM     12  C12 UNL     1      11.319  50.040  46.219  0.00  0.00    +0.000 A 
ATOM     13  C23 UNL     1      10.448  49.475  47.146  0.00  0.00    +0.000 A 
ATOM     14  N3  UNL     1      11.103  49.143  48.275  0.00  0.00    +0.000 N 
ATOM     15  O4  UNL     1      16.163  50.937  47.074  0.00  0.00    +0.000 OA
ATOM     16  H21 UNL     1      10.687  48.723  49.136  0.00  0.00    +0.000 HD
ENDROOT
BRANCH  12  17
ATOM     17  C13 UNL     1      10.864  50.641  44.917  0.00  0.00    +0.000 C 
BRANCH  17  18
ATOM     18  C14 UNL     1       9.522  50.057  44.445  0.00  0.00    +0.000 C 
BRANCH  18  19
ATOM     19  N1  UNL     1       9.695  49.226  43.232  0.00  0.00    +0.000 N 
ATOM     20  C15 UNL     1       9.724  49.823  42.000  0.00  0.00    +0.000 A 
ATOM     21  O1  UNL     1       9.557  51.071  41.898  0.00  0.00    +0.000 OA
ATOM     22  C16 UNL     1       9.949  49.056  40.848  0.00  0.00    +0.000 A 
ATOM     23  C17 UNL     1      10.000  49.654  39.573  0.00  0.00    +0.000 A 
ATOM     24  C18 UNL     1      10.248  48.881  38.440  0.00  0.00    +0.000 A 
ATOM     25  C19 UNL     1      10.457  47.511  38.566  0.00  0.00    +0.000 A 
ATOM     26  C20 UNL     1      10.407  46.901  39.821  0.00  0.00    +0.000 A 
ATOM     27  C21 UNL     1      10.137  47.660  40.984  0.00  0.00    +0.000 A 
ATOM     28  N2  UNL     1      10.070  47.092  42.234  0.00  0.00    +0.000 N 
ATOM     29  C22 UNL     1       9.865  47.868  43.340  0.00  0.00    +0.000 A 
ATOM     30  O3  UNL     1       9.829  47.314  44.475  0.00  0.00    +0.000 OA
BRANCH  28  31
ATOM     31  O2  UNL     1      10.189  45.728  42.447  0.00  0.00    +0.000 OA
ATOM     32  H19 UNL     1      11.020  45.278  42.797  0.00  0.00    +0.000 HD
ENDBRANCH  28  31
ENDBRANCH  18  19
ENDBRANCH  17  18
ENDBRANCH  12  17
TORSDOF 4
ENDMDL
MODEL 9
REMARK VINA RESULT:    -6.063      2.708      7.466
REMARK INTER + INTRA:          -8.954
REMARK INTER:                  -8.509
REMARK INTRA:                  -0.445
REMARK UNBOUND:                -1.651
REMARK  Name = CNP0080599_0.pdb
REMARK  6 active torsions:
REMARK  status: ('A' for Active; 'I' for Inactive)
REMARK    1  A    between atoms: C1_1  and  C2_2
REMARK    2  A    between atoms: C2_2  and  C3_3
REMARK    3  A    between atoms: C12_12  and  C13_13
REMARK    4  A    between atoms: C13_13  and  C14_14
REMARK    5  A    between atoms: C14_14  and  N1_15
REMARK    6  A    between atoms: N2_24  and  O2_25
REMARK                            x       y       z     vdW  Elec       q    Type
REMARK                         _______ _______ _______ _____ _____    ______ ____
ROOT
ATOM      1  C1  UNL     1      25.913  35.505  42.296  0.00  0.00    +0.000 C 
ATOM      2  C2  UNL     1      26.207  34.781  40.976  0.00  0.00    +0.000 C 
ATOM      3  C3  UNL     1      27.720  34.690  40.755  0.00  0.00    +0.000 C 
ATOM      4  C4  UNL     1      25.571  35.553  39.837  0.00  0.00    +0.000 C 
ATOM      5  C5  UNL     1      24.368  35.229  39.355  0.00  0.00    +0.000 C 
ATOM      6  C6  UNL     1      23.660  34.023  39.832  0.00  0.00    +0.000 A 
ATOM      7  C7  UNL     1      24.380  33.127  40.654  0.00  0.00    +0.000 A 
ATOM      8  C8  UNL     1      23.813  31.907  41.066  0.00  0.00    +0.000 A 
ATOM      9  C9  UNL     1      22.506  31.571  40.691  0.00  0.00    +0.000 A 
ATOM     10  C10 UNL     1      21.795  32.474  39.905  0.00  0.00    +0.000 A 
ATOM     11  C11 UNL     1      22.337  33.670  39.479  0.00  0.00    +0.000 A 
ATOM     12  C12 UNL     1      21.317  34.313  38.771  0.00  0.00    +0.000 A 
ATOM     13  C23 UNL     1      20.222  33.456  38.818  0.00  0.00    +0.000 A 
ATOM     14  N3  UNL     1      20.521  32.336  39.502  0.00  0.00    +0.000 N 
ATOM     15  O4  UNL     1      25.681  33.449  41.053  0.00  0.00    +0.000 OA
ATOM     16  H21 UNL     1      19.878  31.538  39.705  0.00  0.00    +0.000 HD
ENDROOT
BRANCH  12  17
ATOM     17  C13 UNL     1      21.254  35.703  38.199  0.00  0.00    +0.000 C 
BRANCH  17  18
ATOM     18  C14 UNL     1      19.912  36.393  38.495  0.00  0.00    +0.000 C 
BRANCH  18  19
ATOM     19  N1  UNL     1      19.782  37.659  37.738  0.00  0.00    +0.000 N 
ATOM     20  C15 UNL     1      19.343  37.632  36.442  0.00  0.00    +0.000 A 
ATOM     21  O1  UNL     1      19.095  36.527  35.880  0.00  0.00    +0.000 OA
ATOM     22  C16 UNL     1      19.156  38.827  35.733  0.00  0.00    +0.000 A 
ATOM     23  C17 UNL     1      18.689  38.822  34.404  0.00  0.00    +0.000 A 
ATOM     24  C18 UNL     1      18.485  40.020  33.722  0.00  0.00    +0.000 A 
ATOM     25  C19 UNL     1      18.736  41.232  34.357  0.00  0.00    +0.000 A 
ATOM     26  C20 UNL     1      19.202  41.257  35.673  0.00  0.00    +0.000 A 
ATOM     27  C21 UNL     1      19.436  40.054  36.381  0.00  0.00    +0.000 A 
ATOM     28  N2  UNL     1      19.905  40.040  37.673  0.00  0.00    +0.000 N 
ATOM     29  C22 UNL     1      20.061  38.859  38.343  0.00  0.00    +0.000 A 
ATOM     30  O3  UNL     1      20.476  38.887  39.536  0.00  0.00    +0.000 OA
BRANCH  28  31
ATOM     31  O2  UNL     1      20.253  41.193  38.359  0.00  0.00    +0.000 OA
ATOM     32  H19 UNL     1      20.864  41.215  39.160  0.00  0.00    +0.000 HD
ENDBRANCH  28  31
ENDBRANCH  18  19
ENDBRANCH  17  18
ENDBRANCH  12  17
TORSDOF 4
ENDMDL
MODEL 10
REMARK VINA RESULT:    -6.009      2.233      4.685
REMARK INTER + INTRA:          -8.890
REMARK INTER:                  -7.647
REMARK INTRA:                  -1.243
REMARK UNBOUND:                -1.651
REMARK  Name = CNP0080599_0.pdb
REMARK  6 active torsions:
REMARK  status: ('A' for Active; 'I' for Inactive)
REMARK    1  A    between atoms: C1_1  and  C2_2
REMARK    2  A    between atoms: C2_2  and  C3_3
REMARK    3  A    between atoms: C12_12  and  C13_13
REMARK    4  A    between atoms: C13_13  and  C14_14
REMARK    5  A    between atoms: C14_14  and  N1_15
REMARK    6  A    between atoms: N2_24  and  O2_25
REMARK                            x       y       z     vdW  Elec       q    Type
REMARK                         _______ _______ _______ _____ _____    ______ ____
ROOT
ATOM      1  C1  UNL     1      16.619  37.174  33.659  0.00  0.00    +0.000 C 
ATOM      2  C2  UNL     1      18.145  37.028  33.619  0.00  0.00    +0.000 C 
ATOM      3  C3  UNL     1      18.574  36.375  32.301  0.00  0.00    +0.000 C 
ATOM      4  C4  UNL     1      18.590  36.164  34.783  0.00  0.00    +0.000 C 
ATOM      5  C5  UNL     1      19.010  36.699  35.933  0.00  0.00    +0.000 C 
ATOM      6  C6  UNL     1      19.177  38.160  36.073  0.00  0.00    +0.000 A 
ATOM      7  C7  UNL     1      19.074  38.944  34.901  0.00  0.00    +0.000 A 
ATOM      8  C8  UNL     1      19.320  40.329  34.933  0.00  0.00    +0.000 A 
ATOM      9  C9  UNL     1      19.645  40.963  36.138  0.00  0.00    +0.000 A 
ATOM     10  C10 UNL     1      19.716  40.187  37.292  0.00  0.00    +0.000 A 
ATOM     11  C11 UNL     1      19.490  38.825  37.281  0.00  0.00    +0.000 A 
ATOM     12  C12 UNL     1      19.597  38.418  38.615  0.00  0.00    +0.000 A 
ATOM     13  C23 UNL     1      19.882  39.568  39.343  0.00  0.00    +0.000 A 
ATOM     14  N3  UNL     1      19.961  40.640  38.532  0.00  0.00    +0.000 N 
ATOM     15  O4  UNL     1      18.737  38.333  33.690  0.00  0.00    +0.000 OA
ATOM     16  H21 UNL     1      20.142  41.628  38.819  0.00  0.00    +0.000 HD
ENDROOT
BRANCH  12  17
ATOM     17  C13 UNL     1      19.309  37.086  39.252  0.00  0.00    +0.000 C 
BRANCH  17  18
ATOM     18  C14 UNL     1      20.592  36.368  39.702  0.00  0.00    +0.000 C 
BRANCH  18  19
ATOM     19  N1  UNL     1      21.039  35.383  38.690  0.00  0.00    +0.000 N 
ATOM     20  C15 UNL     1      21.976  35.744  37.761  0.00  0.00    +0.000 A 
ATOM     21  O1  UNL     1      22.424  36.925  37.738  0.00  0.00    +0.000 OA
ATOM     22  C16 UNL     1      22.453  34.804  36.835  0.00  0.00    +0.000 A 
ATOM     23  C17 UNL     1      23.431  35.151  35.882  0.00  0.00    +0.000 A 
ATOM     24  C18 UNL     1      23.912  34.198  34.986  0.00  0.00    +0.000 A 
ATOM     25  C19 UNL     1      23.432  32.893  35.034  0.00  0.00    +0.000 A 
ATOM     26  C20 UNL     1      22.461  32.532  35.971  0.00  0.00    +0.000 A 
ATOM     27  C21 UNL     1      21.942  33.485  36.879  0.00  0.00    +0.000 A 
ATOM     28  N2  UNL     1      20.978  33.168  37.807  0.00  0.00    +0.000 N 
ATOM     29  C22 UNL     1      20.545  34.102  38.705  0.00  0.00    +0.000 A 
ATOM     30  O3  UNL     1      19.673  33.769  39.556  0.00  0.00    +0.000 OA
BRANCH  28  31
ATOM     31  O2  UNL     1      20.388  31.916  37.880  0.00  0.00    +0.000 OA
ATOM     32  H19 UNL     1      20.861  31.083  38.192  0.00  0.00    +0.000 HD
ENDBRANCH  28  31
ENDBRANCH  18  19
ENDBRANCH  17  18
ENDBRANCH  12  17
TORSDOF 4
ENDMDL
