MODEL 1
REMARK VINA RESULT:    -7.917      0.000      0.000
REMARK INTER + INTRA:         -11.300
REMARK INTER:                 -10.000
REMARK INTRA:                  -1.300
REMARK UNBOUND:                -1.300
REMARK  Name = CNP0110878_1.pdb
REMARK  8 active torsions:
REMARK  status: ('A' for Active; 'I' for Inactive)
REMARK    1  A    between atoms: C2_2  and  C3_3
REMARK    2  A    between atoms: C2_2  and  C19_25
REMARK    3  A    between atoms: C3_3  and  O2_5
REMARK    4  A    between atoms: O2_5  and  C4_6
REMARK    5  A    between atoms: C7_10  and  C8_11
REMARK    6  A    between atoms: C17_22  and  C18_23
REMARK    7  A    between atoms: C17_22  and  O6_24
REMARK    8  A    between atoms: C22_28  and  C23_29
REMARK                            x       y       z     vdW  Elec       q    Type
REMARK                         _______ _______ _______ _____ _____    ______ ____
ROOT
ATOM      1  C4  UNL     1      20.318  36.121  38.515  0.00  0.00    +0.000 C 
ATOM      2  C5  UNL     1      20.049  37.514  38.975  0.00  0.00    +0.000 C 
ATOM      3  O3  UNL     1      20.072  37.854  40.189  0.00  0.00    +0.000 OA
ATOM      4  C6  UNL     1      19.775  38.410  37.846  0.00  0.00    +0.000 C 
ATOM      5  C7  UNL     1      19.792  39.776  37.879  0.00  0.00    +0.000 C 
ATOM      6  C8  UNL     1      19.726  40.497  39.202  0.00  0.00    +0.000 C 
ATOM      7  C9  UNL     1      20.171  40.617  36.662  0.00  0.00    +0.000 C 
ATOM      8  C10 UNL     1      19.174  40.632  35.485  0.00  0.00    +0.000 C 
ATOM      9  C11 UNL     1      18.632  39.247  35.107  0.00  0.00    +0.000 C 
ATOM     10  C12 UNL     1      18.201  39.090  33.677  0.00  0.00    +0.000 C 
ATOM     11  C13 UNL     1      17.430  39.914  32.965  0.00  0.00    +0.000 C 
ATOM     12  C14 UNL     1      18.647  37.786  33.248  0.00  0.00    +0.000 C 
ATOM     13  O4  UNL     1      18.367  37.239  32.148  0.00  0.00    +0.000 OA
ATOM     14  O5  UNL     1      19.422  37.191  34.224  0.00  0.00    +0.000 OA
ATOM     15  C15 UNL     1      19.695  38.122  35.272  0.00  0.00    +0.000 C 
ATOM     16  C16 UNL     1      19.565  37.490  36.662  0.00  0.00    +0.000 C 
ATOM     17  C17 UNL     1      20.448  36.255  36.969  0.00  0.00    +0.000 C 
ATOM     18  C18 UNL     1      21.915  36.473  36.520  0.00  0.00    +0.000 C 
ENDROOT
BRANCH  17  19
ATOM     19  O6  UNL     1      19.920  35.120  36.323  0.00  0.00    +0.000 OA
ATOM     20  H19 UNL     1      19.264  34.702  36.946  0.00  0.00    +0.000 HD
ENDBRANCH  17  19
BRANCH   1  21
ATOM     21  O2  UNL     1      21.509  35.611  39.117  0.00  0.00    +0.000 OA
BRANCH  21  22
ATOM     22  C3  UNL     1      21.577  34.374  39.770  0.00  0.00    +0.000 C 
ATOM     23  O1  UNL     1      21.760  34.322  41.019  0.00  0.00    +0.000 OA
BRANCH  22  25
ATOM     24  C1  UNL     1      22.124  32.850  37.953  0.00  0.00    +0.000 C 
ATOM     25  C2  UNL     1      21.349  33.128  39.004  0.00  0.00    +0.000 C 
BRANCH  25  26
ATOM     26  C19 UNL     1      20.149  32.235  39.271  0.00  0.00    +0.000 C 
ATOM     27  C20 UNL     1      20.609  30.888  39.855  0.00  0.00    +0.000 C 
ATOM     28  C21 UNL     1      19.413  29.971  40.145  0.00  0.00    +0.000 C 
ATOM     29  C22 UNL     1      18.514  29.724  38.897  0.00  0.00    +0.000 C 
ATOM     30  C23 UNL     1      19.314  28.892  37.850  0.00  0.00    +0.000 C 
ATOM     31  C24 UNL     1      17.258  28.879  39.329  0.00  0.00    +0.000 C 
ATOM     32  C25 UNL     1      15.914  29.360  38.742  0.00  0.00    +0.000 C 
ATOM     33  C26 UNL     1      16.034  29.832  37.286  0.00  0.00    +0.000 C 
ATOM     34  C27 UNL     1      17.130  30.862  37.120  0.00  0.00    +0.000 C 
ATOM     35  C28 UNL     1      17.239  31.493  35.935  0.00  0.00    +0.000 C 
ATOM     36  C29 UNL     1      18.067  31.105  38.304  0.00  0.00    +0.000 C 
ATOM     37  C30 UNL     1      19.268  32.041  38.017  0.00  0.00    +0.000 C 
ENDBRANCH  25  26
ENDBRANCH  22  25
ENDBRANCH  21  22
ENDBRANCH   1  21
TORSDOF 5
ENDMDL
MODEL 2
REMARK VINA RESULT:    -7.875      5.043      8.614
REMARK INTER + INTRA:         -11.247
REMARK INTER:                 -10.391
REMARK INTRA:                  -0.856
REMARK UNBOUND:                -1.300
REMARK  Name = CNP0110878_1.pdb
REMARK  8 active torsions:
REMARK  status: ('A' for Active; 'I' for Inactive)
REMARK    1  A    between atoms: C2_2  and  C3_3
REMARK    2  A    between atoms: C2_2  and  C19_25
REMARK    3  A    between atoms: C3_3  and  O2_5
REMARK    4  A    between atoms: O2_5  and  C4_6
REMARK    5  A    between atoms: C7_10  and  C8_11
REMARK    6  A    between atoms: C17_22  and  C18_23
REMARK    7  A    between atoms: C17_22  and  O6_24
REMARK    8  A    between atoms: C22_28  and  C23_29
REMARK                            x       y       z     vdW  Elec       q    Type
REMARK                         _______ _______ _______ _____ _____    ______ ____
ROOT
ATOM      1  C4  UNL     1      25.027  35.116  38.230  0.00  0.00    +0.000 C 
ATOM      2  C5  UNL     1      25.036  35.225  39.718  0.00  0.00    +0.000 C 
ATOM      3  O3  UNL     1      24.077  34.840  40.441  0.00  0.00    +0.000 OA
ATOM      4  C6  UNL     1      26.286  35.816  40.208  0.00  0.00    +0.000 C 
ATOM      5  C7  UNL     1      26.745  35.780  41.495  0.00  0.00    +0.000 C 
ATOM      6  C8  UNL     1      25.799  35.443  42.620  0.00  0.00    +0.000 C 
ATOM      7  C9  UNL     1      28.234  35.774  41.830  0.00  0.00    +0.000 C 
ATOM      8  C10 UNL     1      29.016  37.076  41.560  0.00  0.00    +0.000 C 
ATOM      9  C11 UNL     1      28.715  37.716  40.199  0.00  0.00    +0.000 C 
ATOM     10  C12 UNL     1      29.817  38.555  39.621  0.00  0.00    +0.000 C 
ATOM     11  C13 UNL     1      30.533  39.497  40.239  0.00  0.00    +0.000 C 
ATOM     12  C14 UNL     1      29.863  38.267  38.207  0.00  0.00    +0.000 C 
ATOM     13  O4  UNL     1      30.575  38.867  37.358  0.00  0.00    +0.000 OA
ATOM     14  O5  UNL     1      28.994  37.241  37.891  0.00  0.00    +0.000 OA
ATOM     15  C15 UNL     1      28.462  36.662  39.083  0.00  0.00    +0.000 C 
ATOM     16  C16 UNL     1      26.960  36.376  38.974  0.00  0.00    +0.000 C 
ATOM     17  C17 UNL     1      26.493  35.451  37.822  0.00  0.00    +0.000 C 
ATOM     18  C18 UNL     1      27.376  34.184  37.711  0.00  0.00    +0.000 C 
ENDROOT
BRANCH  17  19
ATOM     19  O6  UNL     1      26.522  36.157  36.604  0.00  0.00    +0.000 OA
ATOM     20  H19 UNL     1      25.625  36.060  36.182  0.00  0.00    +0.000 HD
ENDBRANCH  17  19
BRANCH   1  21
ATOM     21  O2  UNL     1      24.638  33.803  37.822  0.00  0.00    +0.000 OA
BRANCH  21  22
ATOM     22  C3  UNL     1      23.361  33.492  37.339  0.00  0.00    +0.000 C 
ATOM     23  O1  UNL     1      22.939  32.301  37.373  0.00  0.00    +0.000 OA
BRANCH  22  25
ATOM     24  C1  UNL     1      22.259  34.728  35.554  0.00  0.00    +0.000 C 
ATOM     25  C2  UNL     1      22.472  34.576  36.864  0.00  0.00    +0.000 C 
BRANCH  25  26
ATOM     26  C19 UNL     1      21.929  35.635  37.810  0.00  0.00    +0.000 C 
ATOM     27  C20 UNL     1      20.658  35.120  38.508  0.00  0.00    +0.000 C 
ATOM     28  C21 UNL     1      20.095  36.168  39.478  0.00  0.00    +0.000 C 
ATOM     29  C22 UNL     1      19.804  37.539  38.799  0.00  0.00    +0.000 C 
ATOM     30  C23 UNL     1      18.630  37.369  37.789  0.00  0.00    +0.000 C 
ATOM     31  C24 UNL     1      19.352  38.570  39.899  0.00  0.00    +0.000 C 
ATOM     32  C25 UNL     1      19.984  39.973  39.778  0.00  0.00    +0.000 C 
ATOM     33  C26 UNL     1      20.121  40.443  38.323  0.00  0.00    +0.000 C 
ATOM     34  C27 UNL     1      20.838  39.419  37.469  0.00  0.00    +0.000 C 
ATOM     35  C28 UNL     1      21.183  39.763  36.214  0.00  0.00    +0.000 C 
ATOM     36  C29 UNL     1      21.104  38.042  38.079  0.00  0.00    +0.000 C 
ATOM     37  C30 UNL     1      21.684  36.987  37.104  0.00  0.00    +0.000 C 
ENDBRANCH  25  26
ENDBRANCH  22  25
ENDBRANCH  21  22
ENDBRANCH   1  21
TORSDOF 5
ENDMDL
MODEL 3
REMARK VINA RESULT:    -7.818      3.248      6.232
REMARK INTER + INTRA:         -11.174
REMARK INTER:                 -10.212
REMARK INTRA:                  -0.962
REMARK UNBOUND:                -1.300
REMARK  Name = CNP0110878_1.pdb
REMARK  8 active torsions:
REMARK  status: ('A' for Active; 'I' for Inactive)
REMARK    1  A    between atoms: C2_2  and  C3_3
REMARK    2  A    between atoms: C2_2  and  C19_25
REMARK    3  A    between atoms: C3_3  and  O2_5
REMARK    4  A    between atoms: O2_5  and  C4_6
REMARK    5  A    between atoms: C7_10  and  C8_11
REMARK    6  A    between atoms: C17_22  and  C18_23
REMARK    7  A    between atoms: C17_22  and  O6_24
REMARK    8  A    between atoms: C22_28  and  C23_29
REMARK                            x       y       z     vdW  Elec       q    Type
REMARK                         _______ _______ _______ _____ _____    ______ ____
ROOT
ATOM      1  C4  UNL     1      19.961  36.310  38.876  0.00  0.00    +0.000 C 
ATOM      2  C5  UNL     1      19.758  37.753  39.199  0.00  0.00    +0.000 C 
ATOM      3  O3  UNL     1      19.713  38.193  40.380  0.00  0.00    +0.000 OA
ATOM      4  C6  UNL     1      19.636  38.565  37.984  0.00  0.00    +0.000 C 
ATOM      5  C7  UNL     1      19.747  39.925  37.908  0.00  0.00    +0.000 C 
ATOM      6  C8  UNL     1      19.633  40.758  39.160  0.00  0.00    +0.000 C 
ATOM      7  C9  UNL     1      20.276  40.632  36.663  0.00  0.00    +0.000 C 
ATOM      8  C10 UNL     1      19.375  40.611  35.411  0.00  0.00    +0.000 C 
ATOM      9  C11 UNL     1      18.766  39.237  35.102  0.00  0.00    +0.000 C 
ATOM     10  C12 UNL     1      18.433  38.987  33.660  0.00  0.00    +0.000 C 
ATOM     11  C13 UNL     1      17.780  39.796  32.824  0.00  0.00    +0.000 C 
ATOM     12  C14 UNL     1      18.816  37.625  33.373  0.00  0.00    +0.000 C 
ATOM     13  O4  UNL     1      18.582  37.005  32.302  0.00  0.00    +0.000 OA
ATOM     14  O5  UNL     1      19.471  37.066  34.454  0.00  0.00    +0.000 OA
ATOM     15  C15 UNL     1      19.730  38.063  35.443  0.00  0.00    +0.000 C 
ATOM     16  C16 UNL     1      19.450  37.563  36.864  0.00  0.00    +0.000 C 
ATOM     17  C17 UNL     1      20.217  36.304  37.340  0.00  0.00    +0.000 C 
ATOM     18  C18 UNL     1      21.725  36.387  36.995  0.00  0.00    +0.000 C 
ENDROOT
BRANCH  17  19
ATOM     19  O6  UNL     1      19.659  35.155  36.746  0.00  0.00    +0.000 OA
ATOM     20  H19 UNL     1      18.996  34.780  37.388  0.00  0.00    +0.000 HD
ENDBRANCH  17  19
BRANCH   1  21
ATOM     21  O2  UNL     1      21.064  35.777  39.612  0.00  0.00    +0.000 OA
BRANCH  21  22
ATOM     22  C3  UNL     1      21.314  34.406  39.745  0.00  0.00    +0.000 C 
ATOM     23  O1  UNL     1      20.389  33.568  39.553  0.00  0.00    +0.000 OA
BRANCH  22  25
ATOM     24  C1  UNL     1      22.881  32.689  40.466  0.00  0.00    +0.000 C 
ATOM     25  C2  UNL     1      22.689  33.937  40.030  0.00  0.00    +0.000 C 
BRANCH  25  26
ATOM     26  C19 UNL     1      23.877  34.884  40.006  0.00  0.00    +0.000 C 
ATOM     27  C20 UNL     1      24.425  35.012  38.574  0.00  0.00    +0.000 C 
ATOM     28  C21 UNL     1      25.620  35.974  38.522  0.00  0.00    +0.000 C 
ATOM     29  C22 UNL     1      26.771  35.574  39.492  0.00  0.00    +0.000 C 
ATOM     30  C23 UNL     1      27.408  34.238  39.004  0.00  0.00    +0.000 C 
ATOM     31  C24 UNL     1      27.885  36.685  39.450  0.00  0.00    +0.000 C 
ATOM     32  C25 UNL     1      28.450  37.095  40.827  0.00  0.00    +0.000 C 
ATOM     33  C26 UNL     1      28.615  35.906  41.783  0.00  0.00    +0.000 C 
ATOM     34  C27 UNL     1      27.336  35.105  41.907  0.00  0.00    +0.000 C 
ATOM     35  C28 UNL     1      27.277  34.135  42.839  0.00  0.00    +0.000 C 
ATOM     36  C29 UNL     1      26.194  35.431  40.943  0.00  0.00    +0.000 C 
ATOM     37  C30 UNL     1      24.981  34.469  41.004  0.00  0.00    +0.000 C 
ENDBRANCH  25  26
ENDBRANCH  22  25
ENDBRANCH  21  22
ENDBRANCH   1  21
TORSDOF 5
ENDMDL
MODEL 4
REMARK VINA RESULT:    -7.575      3.899      8.603
REMARK INTER + INTRA:         -10.868
REMARK INTER:                  -9.716
REMARK INTRA:                  -1.151
REMARK UNBOUND:                -1.300
REMARK  Name = CNP0110878_1.pdb
REMARK  8 active torsions:
REMARK  status: ('A' for Active; 'I' for Inactive)
REMARK    1  A    between atoms: C2_2  and  C3_3
REMARK    2  A    between atoms: C2_2  and  C19_25
REMARK    3  A    between atoms: C3_3  and  O2_5
REMARK    4  A    between atoms: O2_5  and  C4_6
REMARK    5  A    between atoms: C7_10  and  C8_11
REMARK    6  A    between atoms: C17_22  and  C18_23
REMARK    7  A    between atoms: C17_22  and  O6_24
REMARK    8  A    between atoms: C22_28  and  C23_29
REMARK                            x       y       z     vdW  Elec       q    Type
REMARK                         _______ _______ _______ _____ _____    ______ ____
ROOT
ATOM      1  C4  UNL     1      20.550  40.542  36.432  0.00  0.00    +0.000 C 
ATOM      2  C5  UNL     1      20.256  40.397  37.887  0.00  0.00    +0.000 C 
ATOM      3  O3  UNL     1      19.948  41.371  38.627  0.00  0.00    +0.000 OA
ATOM      4  C6  UNL     1      20.358  38.999  38.321  0.00  0.00    +0.000 C 
ATOM      5  C7  UNL     1      19.867  38.479  39.485  0.00  0.00    +0.000 C 
ATOM      6  C8  UNL     1      19.496  39.398  40.621  0.00  0.00    +0.000 C 
ATOM      7  C9  UNL     1      19.395  37.031  39.597  0.00  0.00    +0.000 C 
ATOM      8  C10 UNL     1      20.479  35.935  39.534  0.00  0.00    +0.000 C 
ATOM      9  C11 UNL     1      21.512  36.141  38.417  0.00  0.00    +0.000 C 
ATOM     10  C12 UNL     1      22.166  34.891  37.904  0.00  0.00    +0.000 C 
ATOM     11  C13 UNL     1      22.696  33.898  38.619  0.00  0.00    +0.000 C 
ATOM     12  C14 UNL     1      22.261  35.029  36.470  0.00  0.00    +0.000 C 
ATOM     13  O4  UNL     1      22.862  34.240  35.694  0.00  0.00    +0.000 OA
ATOM     14  O5  UNL     1      21.610  36.172  36.047  0.00  0.00    +0.000 OA
ATOM     15  C15 UNL     1      20.890  36.759  37.131  0.00  0.00    +0.000 C 
ATOM     16  C16 UNL     1      21.035  38.285  37.171  0.00  0.00    +0.000 C 
ATOM     17  C17 UNL     1      20.598  39.074  35.912  0.00  0.00    +0.000 C 
ATOM     18  C18 UNL     1      19.224  38.594  35.382  0.00  0.00    +0.000 C 
ENDROOT
BRANCH  17  19
ATOM     19  O6  UNL     1      21.570  38.934  34.902  0.00  0.00    +0.000 OA
ATOM     20  H19 UNL     1      21.416  38.054  34.461  0.00  0.00    +0.000 HD
ENDBRANCH  17  19
BRANCH   1  21
ATOM     21  O2  UNL     1      19.536  41.313  35.785  0.00  0.00    +0.000 OA
BRANCH  21  22
ATOM     22  C3  UNL     1      19.672  41.843  34.496  0.00  0.00    +0.000 C 
ATOM     23  O1  UNL     1      20.805  41.879  33.938  0.00  0.00    +0.000 OA
BRANCH  22  25
ATOM     24  C1  UNL     1      17.754  43.316  34.215  0.00  0.00    +0.000 C 
ATOM     25  C2  UNL     1      18.469  42.286  33.755  0.00  0.00    +0.000 C 
BRANCH  25  26
ATOM     26  C19 UNL     1      17.921  41.496  32.578  0.00  0.00    +0.000 C 
ATOM     27  C20 UNL     1      16.860  42.324  31.832  0.00  0.00    +0.000 C 
ATOM     28  C21 UNL     1      16.299  41.553  30.630  0.00  0.00    +0.000 C 
ATOM     29  C22 UNL     1      15.708  40.164  31.015  0.00  0.00    +0.000 C 
ATOM     30  C23 UNL     1      14.434  40.376  31.888  0.00  0.00    +0.000 C 
ATOM     31  C24 UNL     1      15.275  39.409  29.703  0.00  0.00    +0.000 C 
ATOM     32  C25 UNL     1      15.665  37.917  29.650  0.00  0.00    +0.000 C 
ATOM     33  C26 UNL     1      15.512  37.211  31.004  0.00  0.00    +0.000 C 
ATOM     34  C27 UNL     1      16.238  37.951  32.107  0.00  0.00    +0.000 C 
ATOM     35  C28 UNL     1      16.336  37.362  33.314  0.00  0.00    +0.000 C 
ATOM     36  C29 UNL     1      16.795  39.339  31.788  0.00  0.00    +0.000 C 
ATOM     37  C30 UNL     1      17.374  40.114  32.999  0.00  0.00    +0.000 C 
ENDBRANCH  25  26
ENDBRANCH  22  25
ENDBRANCH  21  22
ENDBRANCH   1  21
TORSDOF 5
ENDMDL
MODEL 5
REMARK VINA RESULT:    -7.090      4.303     11.254
REMARK INTER + INTRA:         -10.255
REMARK INTER:                  -9.838
REMARK INTRA:                  -0.416
REMARK UNBOUND:                -1.300
REMARK  Name = CNP0110878_1.pdb
REMARK  8 active torsions:
REMARK  status: ('A' for Active; 'I' for Inactive)
REMARK    1  A    between atoms: C2_2  and  C3_3
REMARK    2  A    between atoms: C2_2  and  C19_25
REMARK    3  A    between atoms: C3_3  and  O2_5
REMARK    4  A    between atoms: O2_5  and  C4_6
REMARK    5  A    between atoms: C7_10  and  C8_11
REMARK    6  A    between atoms: C17_22  and  C18_23
REMARK    7  A    between atoms: C17_22  and  O6_24
REMARK    8  A    between atoms: C22_28  and  C23_29
REMARK                            x       y       z     vdW  Elec       q    Type
REMARK                         _______ _______ _______ _____ _____    ______ ____
ROOT
ATOM      1  C4  UNL     1      20.585  40.535  36.256  0.00  0.00    +0.000 C 
ATOM      2  C5  UNL     1      20.333  40.379  37.718  0.00  0.00    +0.000 C 
ATOM      3  O3  UNL     1      20.183  41.359  38.498  0.00  0.00    +0.000 OA
ATOM      4  C6  UNL     1      20.273  38.966  38.107  0.00  0.00    +0.000 C 
ATOM      5  C7  UNL     1      19.767  38.473  39.277  0.00  0.00    +0.000 C 
ATOM      6  C8  UNL     1      19.562  39.393  40.454  0.00  0.00    +0.000 C 
ATOM      7  C9  UNL     1      19.118  37.094  39.367  0.00  0.00    +0.000 C 
ATOM      8  C10 UNL     1      20.050  35.872  39.225  0.00  0.00    +0.000 C 
ATOM      9  C11 UNL     1      21.055  35.983  38.071  0.00  0.00    +0.000 C 
ATOM     10  C12 UNL     1      21.523  34.679  37.494  0.00  0.00    +0.000 C 
ATOM     11  C13 UNL     1      21.950  33.602  38.157  0.00  0.00    +0.000 C 
ATOM     12  C14 UNL     1      21.577  34.852  36.061  0.00  0.00    +0.000 C 
ATOM     13  O4  UNL     1      22.041  34.020  35.238  0.00  0.00    +0.000 OA
ATOM     14  O5  UNL     1      21.061  36.082  35.701  0.00  0.00    +0.000 OA
ATOM     15  C15 UNL     1      20.467  36.718  36.832  0.00  0.00    +0.000 C 
ATOM     16  C16 UNL     1      20.807  38.211  36.909  0.00  0.00    +0.000 C 
ATOM     17  C17 UNL     1      20.424  39.091  35.693  0.00  0.00    +0.000 C 
ATOM     18  C18 UNL     1      18.980  38.807  35.211  0.00  0.00    +0.000 C 
ENDROOT
BRANCH  17  19
ATOM     19  O6  UNL     1      21.329  38.864  34.638  0.00  0.00    +0.000 OA
ATOM     20  H19 UNL     1      20.970  39.329  33.833  0.00  0.00    +0.000 HD
ENDBRANCH  17  19
BRANCH   1  21
ATOM     21  O2  UNL     1      19.653  41.450  35.677  0.00  0.00    +0.000 OA
BRANCH  21  22
ATOM     22  C3  UNL     1      19.793  41.985  34.391  0.00  0.00    +0.000 C 
ATOM     23  O1  UNL     1      20.857  41.800  33.735  0.00  0.00    +0.000 OA
BRANCH  22  25
ATOM     24  C1  UNL     1      17.528  42.036  33.499  0.00  0.00    +0.000 C 
ATOM     25  C2  UNL     1      18.656  42.699  33.767  0.00  0.00    +0.000 C 
BRANCH  25  26
ATOM     26  C19 UNL     1      18.790  44.126  33.262  0.00  0.00    +0.000 C 
ATOM     27  C20 UNL     1      17.939  44.322  31.995  0.00  0.00    +0.000 C 
ATOM     28  C21 UNL     1      18.048  45.761  31.471  0.00  0.00    +0.000 C 
ATOM     29  C22 UNL     1      19.515  46.202  31.192  0.00  0.00    +0.000 C 
ATOM     30  C23 UNL     1      20.077  45.377  29.995  0.00  0.00    +0.000 C 
ATOM     31  C24 UNL     1      19.524  47.721  30.780  0.00  0.00    +0.000 C 
ATOM     32  C25 UNL     1      20.635  48.569  31.436  0.00  0.00    +0.000 C 
ATOM     33  C26 UNL     1      21.968  47.817  31.553  0.00  0.00    +0.000 C 
ATOM     34  C27 UNL     1      21.798  46.477  32.234  0.00  0.00    +0.000 C 
ATOM     35  C28 UNL     1      22.903  45.781  32.561  0.00  0.00    +0.000 C 
ATOM     36  C29 UNL     1      20.373  45.981  32.486  0.00  0.00    +0.000 C 
ATOM     37  C30 UNL     1      20.262  44.533  33.028  0.00  0.00    +0.000 C 
ENDBRANCH  25  26
ENDBRANCH  22  25
ENDBRANCH  21  22
ENDBRANCH   1  21
TORSDOF 5
ENDMDL
MODEL 6
REMARK VINA RESULT:    -6.934      3.625     10.398
REMARK INTER + INTRA:         -10.059
REMARK INTER:                  -9.041
REMARK INTRA:                  -1.017
REMARK UNBOUND:                -1.300
REMARK  Name = CNP0110878_1.pdb
REMARK  8 active torsions:
REMARK  status: ('A' for Active; 'I' for Inactive)
REMARK    1  A    between atoms: C2_2  and  C3_3
REMARK    2  A    between atoms: C2_2  and  C19_25
REMARK    3  A    between atoms: C3_3  and  O2_5
REMARK    4  A    between atoms: O2_5  and  C4_6
REMARK    5  A    between atoms: C7_10  and  C8_11
REMARK    6  A    between atoms: C17_22  and  C18_23
REMARK    7  A    between atoms: C17_22  and  O6_24
REMARK    8  A    between atoms: C22_28  and  C23_29
REMARK                            x       y       z     vdW  Elec       q    Type
REMARK                         _______ _______ _______ _____ _____    ______ ____
ROOT
ATOM      1  C4  UNL     1      19.446  39.453  34.814  0.00  0.00    +0.000 C 
ATOM      2  C5  UNL     1      19.596  39.995  36.196  0.00  0.00    +0.000 C 
ATOM      3  O3  UNL     1      19.511  41.224  36.464  0.00  0.00    +0.000 OA
ATOM      4  C6  UNL     1      19.836  38.927  37.171  0.00  0.00    +0.000 C 
ATOM      5  C7  UNL     1      19.717  39.032  38.528  0.00  0.00    +0.000 C 
ATOM      6  C8  UNL     1      19.688  40.394  39.176  0.00  0.00    +0.000 C 
ATOM      7  C9  UNL     1      19.313  37.850  39.406  0.00  0.00    +0.000 C 
ATOM      8  C10 UNL     1      20.342  36.710  39.560  0.00  0.00    +0.000 C 
ATOM      9  C11 UNL     1      20.997  36.277  38.241  0.00  0.00    +0.000 C 
ATOM     10  C12 UNL     1      21.482  34.857  38.197  0.00  0.00    +0.000 C 
ATOM     11  C13 UNL     1      22.211  34.218  39.114  0.00  0.00    +0.000 C 
ATOM     12  C14 UNL     1      21.148  34.343  36.890  0.00  0.00    +0.000 C 
ATOM     13  O4  UNL     1      21.502  33.226  36.428  0.00  0.00    +0.000 OA
ATOM     14  O5  UNL     1      20.390  35.259  36.186  0.00  0.00    +0.000 OA
ATOM     15  C15 UNL     1      20.017  36.345  37.034  0.00  0.00    +0.000 C 
ATOM     16  C16 UNL     1      20.151  37.703  36.337  0.00  0.00    +0.000 C 
ATOM     17  C17 UNL     1      19.353  37.912  35.025  0.00  0.00    +0.000 C 
ATOM     18  C18 UNL     1      17.889  37.425  35.161  0.00  0.00    +0.000 C 
ENDROOT
BRANCH  17  19
ATOM     19  O6  UNL     1      19.985  37.225  33.970  0.00  0.00    +0.000 OA
ATOM     20  H19 UNL     1      20.430  37.906  33.396  0.00  0.00    +0.000 HD
ENDBRANCH  17  19
BRANCH   1  21
ATOM     21  O2  UNL     1      18.278  39.985  34.186  0.00  0.00    +0.000 OA
BRANCH  21  22
ATOM     22  C3  UNL     1      18.319  40.905  33.131  0.00  0.00    +0.000 C 
ATOM     23  O1  UNL     1      18.282  40.505  31.934  0.00  0.00    +0.000 OA
BRANCH  22  25
ATOM     24  C1  UNL     1      17.163  43.010  33.530  0.00  0.00    +0.000 C 
ATOM     25  C2  UNL     1      18.323  42.356  33.425  0.00  0.00    +0.000 C 
BRANCH  25  26
ATOM     26  C19 UNL     1      19.610  43.164  33.442  0.00  0.00    +0.000 C 
ATOM     27  C20 UNL     1      19.405  44.503  32.713  0.00  0.00    +0.000 C 
ATOM     28  C21 UNL     1      20.689  45.344  32.727  0.00  0.00    +0.000 C 
ATOM     29  C22 UNL     1      21.917  44.599  32.123  0.00  0.00    +0.000 C 
ATOM     30  C23 UNL     1      21.683  44.387  30.597  0.00  0.00    +0.000 C 
ATOM     31  C24 UNL     1      23.198  45.496  32.297  0.00  0.00    +0.000 C 
ATOM     32  C25 UNL     1      24.460  44.746  32.772  0.00  0.00    +0.000 C 
ATOM     33  C26 UNL     1      24.601  43.355  32.140  0.00  0.00    +0.000 C 
ATOM     34  C27 UNL     1      23.346  42.528  32.319  0.00  0.00    +0.000 C 
ATOM     35  C28 UNL     1      23.382  41.229  31.967  0.00  0.00    +0.000 C 
ATOM     36  C29 UNL     1      22.102  43.230  32.865  0.00  0.00    +0.000 C 
ATOM     37  C30 UNL     1      20.808  42.378  32.864  0.00  0.00    +0.000 C 
ENDBRANCH  25  26
ENDBRANCH  22  25
ENDBRANCH  21  22
ENDBRANCH   1  21
TORSDOF 5
ENDMDL
MODEL 7
REMARK VINA RESULT:    -6.912      5.450      9.249
REMARK INTER + INTRA:         -10.030
REMARK INTER:                  -9.112
REMARK INTRA:                  -0.918
REMARK UNBOUND:                -1.300
REMARK  Name = CNP0110878_1.pdb
REMARK  8 active torsions:
REMARK  status: ('A' for Active; 'I' for Inactive)
REMARK    1  A    between atoms: C2_2  and  C3_3
REMARK    2  A    between atoms: C2_2  and  C19_25
REMARK    3  A    between atoms: C3_3  and  O2_5
REMARK    4  A    between atoms: O2_5  and  C4_6
REMARK    5  A    between atoms: C7_10  and  C8_11
REMARK    6  A    between atoms: C17_22  and  C18_23
REMARK    7  A    between atoms: C17_22  and  O6_24
REMARK    8  A    between atoms: C22_28  and  C23_29
REMARK                            x       y       z     vdW  Elec       q    Type
REMARK                         _______ _______ _______ _____ _____    ______ ____
ROOT
ATOM      1  C4  UNL     1      20.791  41.940  32.634  0.00  0.00    +0.000 C 
ATOM      2  C5  UNL     1      22.090  41.676  31.950  0.00  0.00    +0.000 C 
ATOM      3  O3  UNL     1      22.490  40.516  31.658  0.00  0.00    +0.000 OA
ATOM      4  C6  UNL     1      22.810  42.921  31.662  0.00  0.00    +0.000 C 
ATOM      5  C7  UNL     1      23.856  43.065  30.794  0.00  0.00    +0.000 C 
ATOM      6  C8  UNL     1      24.617  41.850  30.327  0.00  0.00    +0.000 C 
ATOM      7  C9  UNL     1      24.114  44.365  30.036  0.00  0.00    +0.000 C 
ATOM      8  C10 UNL     1      24.601  45.572  30.864  0.00  0.00    +0.000 C 
ATOM      9  C11 UNL     1      23.826  45.788  32.171  0.00  0.00    +0.000 C 
ATOM     10  C12 UNL     1      23.796  47.201  32.679  0.00  0.00    +0.000 C 
ATOM     11  C13 UNL     1      24.824  48.043  32.801  0.00  0.00    +0.000 C 
ATOM     12  C14 UNL     1      22.459  47.440  33.168  0.00  0.00    +0.000 C 
ATOM     13  O4  UNL     1      22.075  48.469  33.784  0.00  0.00    +0.000 OA
ATOM     14  O5  UNL     1      21.638  46.365  32.884  0.00  0.00    +0.000 OA
ATOM     15  C15 UNL     1      22.316  45.438  32.037  0.00  0.00    +0.000 C 
ATOM     16  C16 UNL     1      22.085  43.983  32.461  0.00  0.00    +0.000 C 
ATOM     17  C17 UNL     1      20.619  43.485  32.529  0.00  0.00    +0.000 C 
ATOM     18  C18 UNL     1      19.814  43.901  31.273  0.00  0.00    +0.000 C 
ENDROOT
BRANCH  17  19
ATOM     19  O6  UNL     1      19.995  43.997  33.682  0.00  0.00    +0.000 OA
ATOM     20  H19 UNL     1      19.785  43.225  34.275  0.00  0.00    +0.000 HD
ENDBRANCH  17  19
BRANCH   1  21
ATOM     21  O2  UNL     1      19.729  41.232  31.993  0.00  0.00    +0.000 OA
BRANCH  21  22
ATOM     22  C3  UNL     1      18.643  40.678  32.682  0.00  0.00    +0.000 C 
ATOM     23  O1  UNL     1      17.490  41.181  32.567  0.00  0.00    +0.000 OA
BRANCH  22  25
ATOM     24  C1  UNL     1      18.887  38.262  32.870  0.00  0.00    +0.000 C 
ATOM     25  C2  UNL     1      18.835  39.448  33.484  0.00  0.00    +0.000 C 
BRANCH  25  26
ATOM     26  C19 UNL     1      18.802  39.471  35.003  0.00  0.00    +0.000 C 
ATOM     27  C20 UNL     1      19.615  40.665  35.532  0.00  0.00    +0.000 C 
ATOM     28  C21 UNL     1      19.588  40.718  37.066  0.00  0.00    +0.000 C 
ATOM     29  C22 UNL     1      20.089  39.403  37.734  0.00  0.00    +0.000 C 
ATOM     30  C23 UNL     1      21.610  39.231  37.442  0.00  0.00    +0.000 C 
ATOM     31  C24 UNL     1      19.905  39.517  39.293  0.00  0.00    +0.000 C 
ATOM     32  C25 UNL     1      19.329  38.259  39.976  0.00  0.00    +0.000 C 
ATOM     33  C26 UNL     1      19.874  36.954  39.380  0.00  0.00    +0.000 C 
ATOM     34  C27 UNL     1      19.709  36.912  37.876  0.00  0.00    +0.000 C 
ATOM     35  C28 UNL     1      19.983  35.761  37.235  0.00  0.00    +0.000 C 
ATOM     36  C29 UNL     1      19.263  38.195  37.172  0.00  0.00    +0.000 C 
ATOM     37  C30 UNL     1      19.277  38.138  35.624  0.00  0.00    +0.000 C 
ENDBRANCH  25  26
ENDBRANCH  22  25
ENDBRANCH  21  22
ENDBRANCH   1  21
TORSDOF 5
ENDMDL
MODEL 8
REMARK VINA RESULT:    -6.901      3.489      6.801
REMARK INTER + INTRA:         -10.017
REMARK INTER:                  -9.024
REMARK INTRA:                  -0.993
REMARK UNBOUND:                -1.300
REMARK  Name = CNP0110878_1.pdb
REMARK  8 active torsions:
REMARK  status: ('A' for Active; 'I' for Inactive)
REMARK    1  A    between atoms: C2_2  and  C3_3
REMARK    2  A    between atoms: C2_2  and  C19_25
REMARK    3  A    between atoms: C3_3  and  O2_5
REMARK    4  A    between atoms: O2_5  and  C4_6
REMARK    5  A    between atoms: C7_10  and  C8_11
REMARK    6  A    between atoms: C17_22  and  C18_23
REMARK    7  A    between atoms: C17_22  and  O6_24
REMARK    8  A    between atoms: C22_28  and  C23_29
REMARK                            x       y       z     vdW  Elec       q    Type
REMARK                         _______ _______ _______ _____ _____    ______ ____
ROOT
ATOM      1  C4  UNL     1      20.766  35.843  37.428  0.00  0.00    +0.000 C 
ATOM      2  C5  UNL     1      20.105  35.169  36.272  0.00  0.00    +0.000 C 
ATOM      3  O3  UNL     1      20.175  33.927  36.069  0.00  0.00    +0.000 OA
ATOM      4  C6  UNL     1      19.370  36.127  35.438  0.00  0.00    +0.000 C 
ATOM      5  C7  UNL     1      18.424  35.820  34.502  0.00  0.00    +0.000 C 
ATOM      6  C8  UNL     1      18.319  34.412  33.972  0.00  0.00    +0.000 C 
ATOM      7  C9  UNL     1      17.265  36.760  34.175  0.00  0.00    +0.000 C 
ATOM      8  C10 UNL     1      17.614  38.066  33.432  0.00  0.00    +0.000 C 
ATOM      9  C11 UNL     1      18.837  38.801  33.999  0.00  0.00    +0.000 C 
ATOM     10  C12 UNL     1      18.857  40.286  33.778  0.00  0.00    +0.000 C 
ATOM     11  C13 UNL     1      18.617  40.943  32.642  0.00  0.00    +0.000 C 
ATOM     12  C14 UNL     1      19.346  40.882  34.999  0.00  0.00    +0.000 C 
ATOM     13  O4  UNL     1      19.621  42.101  35.162  0.00  0.00    +0.000 OA
ATOM     14  O5  UNL     1      19.494  39.924  35.983  0.00  0.00    +0.000 OA
ATOM     15  C15 UNL     1      18.944  38.681  35.547  0.00  0.00    +0.000 C 
ATOM     16  C16 UNL     1      19.835  37.488  35.910  0.00  0.00    +0.000 C 
ATOM     17  C17 UNL     1      20.177  37.284  37.407  0.00  0.00    +0.000 C 
ATOM     18  C18 UNL     1      18.921  37.418  38.305  0.00  0.00    +0.000 C 
ENDROOT
BRANCH  17  19
ATOM     19  O6  UNL     1      21.146  38.225  37.806  0.00  0.00    +0.000 OA
ATOM     20  H19 UNL     1      21.782  38.337  37.047  0.00  0.00    +0.000 HD
ENDBRANCH  17  19
BRANCH   1  21
ATOM     21  O2  UNL     1      20.477  35.156  38.647  0.00  0.00    +0.000 OA
BRANCH  21  22
ATOM     22  C3  UNL     1      21.461  34.601  39.473  0.00  0.00    +0.000 C 
ATOM     23  O1  UNL     1      21.232  34.413  40.701  0.00  0.00    +0.000 OA
BRANCH  22  25
ATOM     24  C1  UNL     1      22.877  32.893  38.469  0.00  0.00    +0.000 C 
ATOM     25  C2  UNL     1      22.745  34.156  38.885  0.00  0.00    +0.000 C 
BRANCH  25  26
ATOM     26  C19 UNL     1      23.979  35.043  38.897  0.00  0.00    +0.000 C 
ATOM     27  C20 UNL     1      24.863  34.738  37.675  0.00  0.00    +0.000 C 
ATOM     28  C21 UNL     1      26.112  35.630  37.657  0.00  0.00    +0.000 C 
ATOM     29  C22 UNL     1      26.959  35.526  38.960  0.00  0.00    +0.000 C 
ATOM     30  C23 UNL     1      27.581  34.099  39.050  0.00  0.00    +0.000 C 
ATOM     31  C24 UNL     1      28.139  36.565  38.890  0.00  0.00    +0.000 C 
ATOM     32  C25 UNL     1      28.388  37.358  40.190  0.00  0.00    +0.000 C 
ATOM     33  C26 UNL     1      28.219  36.503  41.453  0.00  0.00    +0.000 C 
ATOM     34  C27 UNL     1      26.886  35.786  41.470  0.00  0.00    +0.000 C 
ATOM     35  C28 UNL     1      26.525  35.136  42.592  0.00  0.00    +0.000 C 
ATOM     36  C29 UNL     1      26.040  35.823  40.196  0.00  0.00    +0.000 C 
ATOM     37  C30 UNL     1      24.773  34.932  40.217  0.00  0.00    +0.000 C 
ENDBRANCH  25  26
ENDBRANCH  22  25
ENDBRANCH  21  22
ENDBRANCH   1  21
TORSDOF 5
ENDMDL
MODEL 9
REMARK VINA RESULT:    -6.747      6.111      9.128
REMARK INTER + INTRA:          -9.823
REMARK INTER:                  -8.877
REMARK INTRA:                  -0.945
REMARK UNBOUND:                -1.300
REMARK  Name = CNP0110878_1.pdb
REMARK  8 active torsions:
REMARK  status: ('A' for Active; 'I' for Inactive)
REMARK    1  A    between atoms: C2_2  and  C3_3
REMARK    2  A    between atoms: C2_2  and  C19_25
REMARK    3  A    between atoms: C3_3  and  O2_5
REMARK    4  A    between atoms: O2_5  and  C4_6
REMARK    5  A    between atoms: C7_10  and  C8_11
REMARK    6  A    between atoms: C17_22  and  C18_23
REMARK    7  A    between atoms: C17_22  and  O6_24
REMARK    8  A    between atoms: C22_28  and  C23_29
REMARK                            x       y       z     vdW  Elec       q    Type
REMARK                         _______ _______ _______ _____ _____    ______ ____
ROOT
ATOM      1  C4  UNL     1      26.233  35.753  34.093  0.00  0.00    +0.000 C 
ATOM      2  C5  UNL     1      26.567  35.609  32.646  0.00  0.00    +0.000 C 
ATOM      3  O3  UNL     1      26.194  34.626  31.950  0.00  0.00    +0.000 OA
ATOM      4  C6  UNL     1      27.356  36.745  32.159  0.00  0.00    +0.000 C 
ATOM      5  C7  UNL     1      27.565  37.080  30.851  0.00  0.00    +0.000 C 
ATOM      6  C8  UNL     1      27.302  36.067  29.765  0.00  0.00    +0.000 C 
ATOM      7  C9  UNL     1      27.769  38.525  30.401  0.00  0.00    +0.000 C 
ATOM      8  C10 UNL     1      29.092  39.204  30.812  0.00  0.00    +0.000 C 
ATOM      9  C11 UNL     1      29.483  38.975  32.279  0.00  0.00    +0.000 C 
ATOM     10  C12 UNL     1      30.338  40.045  32.894  0.00  0.00    +0.000 C 
ATOM     11  C13 UNL     1      31.434  40.606  32.379  0.00  0.00    +0.000 C 
ATOM     12  C14 UNL     1      29.846  40.252  34.235  0.00  0.00    +0.000 C 
ATOM     13  O4  UNL     1      30.383  40.983  35.109  0.00  0.00    +0.000 OA
ATOM     14  O5  UNL     1      28.696  39.517  34.450  0.00  0.00    +0.000 OA
ATOM     15  C15 UNL     1      28.250  38.931  33.228  0.00  0.00    +0.000 C 
ATOM     16  C16 UNL     1      27.792  37.479  33.409  0.00  0.00    +0.000 C 
ATOM     17  C17 UNL     1      26.658  37.213  34.431  0.00  0.00    +0.000 C 
ATOM     18  C18 UNL     1      25.491  38.218  34.267  0.00  0.00    +0.000 C 
ENDROOT
BRANCH  17  19
ATOM     19  O6  UNL     1      27.170  37.293  35.741  0.00  0.00    +0.000 OA
ATOM     20  H19 UNL     1      27.833  36.557  35.847  0.00  0.00    +0.000 HD
ENDBRANCH  17  19
BRANCH   1  21
ATOM     21  O2  UNL     1      24.840  35.529  34.316  0.00  0.00    +0.000 OA
BRANCH  21  22
ATOM     22  C3  UNL     1      24.282  35.329  35.584  0.00  0.00    +0.000 C 
ATOM     23  O1  UNL     1      25.024  35.076  36.574  0.00  0.00    +0.000 OA
BRANCH  22  25
ATOM     24  C1  UNL     1      21.980  35.084  34.829  0.00  0.00    +0.000 C 
ATOM     25  C2  UNL     1      22.824  35.498  35.778  0.00  0.00    +0.000 C 
BRANCH  25  26
ATOM     26  C19 UNL     1      22.260  36.286  36.949  0.00  0.00    +0.000 C 
ATOM     27  C20 UNL     1      21.182  35.461  37.673  0.00  0.00    +0.000 C 
ATOM     28  C21 UNL     1      20.604  36.231  38.869  0.00  0.00    +0.000 C 
ATOM     29  C22 UNL     1      20.027  37.624  38.480  0.00  0.00    +0.000 C 
ATOM     30  C23 UNL     1      18.768  37.422  37.585  0.00  0.00    +0.000 C 
ATOM     31  C24 UNL     1      19.577  38.376  39.787  0.00  0.00    +0.000 C 
ATOM     32  C25 UNL     1      19.974  39.866  39.853  0.00  0.00    +0.000 C 
ATOM     33  C26 UNL     1      19.847  40.578  38.499  0.00  0.00    +0.000 C 
ATOM     34  C27 UNL     1      20.588  39.839  37.406  0.00  0.00    +0.000 C 
ATOM     35  C28 UNL     1      20.710  40.431  36.203  0.00  0.00    +0.000 C 
ATOM     36  C29 UNL     1      21.132  38.446  37.729  0.00  0.00    +0.000 C 
ATOM     37  C30 UNL     1      21.728  37.673  36.525  0.00  0.00    +0.000 C 
ENDBRANCH  25  26
ENDBRANCH  22  25
ENDBRANCH  21  22
ENDBRANCH   1  21
TORSDOF 5
ENDMDL
MODEL 10
REMARK VINA RESULT:    -6.518      3.194      8.567
REMARK INTER + INTRA:          -9.533
REMARK INTER:                  -8.540
REMARK INTRA:                  -0.993
REMARK UNBOUND:                -1.300
REMARK  Name = CNP0110878_1.pdb
REMARK  8 active torsions:
REMARK  status: ('A' for Active; 'I' for Inactive)
REMARK    1  A    between atoms: C2_2  and  C3_3
REMARK    2  A    between atoms: C2_2  and  C19_25
REMARK    3  A    between atoms: C3_3  and  O2_5
REMARK    4  A    between atoms: O2_5  and  C4_6
REMARK    5  A    between atoms: C7_10  and  C8_11
REMARK    6  A    between atoms: C17_22  and  C18_23
REMARK    7  A    between atoms: C17_22  and  O6_24
REMARK    8  A    between atoms: C22_28  and  C23_29
REMARK                            x       y       z     vdW  Elec       q    Type
REMARK                         _______ _______ _______ _____ _____    ______ ____
ROOT
ATOM      1  C4  UNL     1      21.277  35.871  38.545  0.00  0.00    +0.000 C 
ATOM      2  C5  UNL     1      22.724  35.946  38.186  0.00  0.00    +0.000 C 
ATOM      3  O3  UNL     1      23.249  36.963  37.659  0.00  0.00    +0.000 OA
ATOM      4  C6  UNL     1      23.430  34.709  38.536  0.00  0.00    +0.000 C 
ATOM      5  C7  UNL     1      24.785  34.553  38.627  0.00  0.00    +0.000 C 
ATOM      6  C8  UNL     1      25.702  35.570  37.997  0.00  0.00    +0.000 C 
ATOM      7  C9  UNL     1      25.428  33.557  39.590  0.00  0.00    +0.000 C 
ATOM      8  C10 UNL     1      25.251  32.059  39.266  0.00  0.00    +0.000 C 
ATOM      9  C11 UNL     1      23.820  31.668  38.873  0.00  0.00    +0.000 C 
ATOM     10  C12 UNL     1      23.438  30.243  39.154  0.00  0.00    +0.000 C 
ATOM     11  C13 UNL     1      24.136  29.143  38.865  0.00  0.00    +0.000 C 
ATOM     12  C14 UNL     1      22.087  30.266  39.660  0.00  0.00    +0.000 C 
ATOM     13  O4  UNL     1      21.373  29.254  39.893  0.00  0.00    +0.000 OA
ATOM     14  O5  UNL     1      21.658  31.566  39.844  0.00  0.00    +0.000 OA
ATOM     15  C15 UNL     1      22.742  32.474  39.655  0.00  0.00    +0.000 C 
ATOM     16  C16 UNL     1      22.335  33.710  38.844  0.00  0.00    +0.000 C 
ATOM     17  C17 UNL     1      21.169  34.570  39.394  0.00  0.00    +0.000 C 
ATOM     18  C18 UNL     1      21.326  34.844  40.911  0.00  0.00    +0.000 C 
ENDROOT
BRANCH  17  19
ATOM     19  O6  UNL     1      19.944  33.918  39.155  0.00  0.00    +0.000 OA
ATOM     20  H19 UNL     1      20.009  33.007  39.554  0.00  0.00    +0.000 HD
ENDBRANCH  17  19
BRANCH   1  21
ATOM     21  O2  UNL     1      20.876  37.031  39.276  0.00  0.00    +0.000 OA
BRANCH  21  22
ATOM     22  C3  UNL     1      19.751  37.798  38.952  0.00  0.00    +0.000 C 
ATOM     23  O1  UNL     1      18.595  37.399  39.264  0.00  0.00    +0.000 OA
BRANCH  22  25
ATOM     24  C1  UNL     1      19.822  40.230  39.054  0.00  0.00    +0.000 C 
ATOM     25  C2  UNL     1      19.928  39.123  38.314  0.00  0.00    +0.000 C 
BRANCH  25  26
ATOM     26  C19 UNL     1      20.054  39.273  36.807  0.00  0.00    +0.000 C 
ATOM     27  C20 UNL     1      20.040  40.762  36.419  0.00  0.00    +0.000 C 
ATOM     28  C21 UNL     1      20.179  40.941  34.901  0.00  0.00    +0.000 C 
ATOM     29  C22 UNL     1      19.090  40.177  34.091  0.00  0.00    +0.000 C 
ATOM     30  C23 UNL     1      17.700  40.824  34.369  0.00  0.00    +0.000 C 
ATOM     31  C24 UNL     1      19.396  40.325  32.555  0.00  0.00    +0.000 C 
ATOM     32  C25 UNL     1      19.246  39.028  31.732  0.00  0.00    +0.000 C 
ATOM     33  C26 UNL     1      18.053  38.172  32.178  0.00  0.00    +0.000 C 
ATOM     34  C27 UNL     1      18.084  37.901  33.667  0.00  0.00    +0.000 C 
ATOM     35  C28 UNL     1      17.198  37.024  34.175  0.00  0.00    +0.000 C 
ATOM     36  C29 UNL     1      19.106  38.665  34.510  0.00  0.00    +0.000 C 
ATOM     37  C30 UNL     1      18.976  38.475  36.042  0.00  0.00    +0.000 C 
ENDBRANCH  25  26
ENDBRANCH  22  25
ENDBRANCH  21  22
ENDBRANCH   1  21
TORSDOF 5
ENDMDL
