REMARK  Name = CNP0606747_0.pdb
REMARK  6 active torsions:
REMARK  status: ('A' for Active; 'I' for Inactive)
REMARK    1  A    between atoms: C1_1  and  N1_2
REMARK    2  A    between atoms: N3_9  and  C6_10
REMARK    3  A    between atoms: C6_10  and  C7_11
REMARK    4  A    between atoms: N4_20  and  C14_21
REMARK    5  A    between atoms: C14_21  and  C15_22
REMARK    6  A    between atoms: N5_32  and  C25_33
REMARK                            x       y       z     vdW  Elec       q    Type
REMARK                         _______ _______ _______ _____ _____    ______ ____
ROOT
ATOM      1  C1  UNL     1      -1.814  -5.390  -0.884  0.00  0.00    +0.000 C 
ATOM      2  N1  UNL     1      -1.051  -4.202  -0.463  0.00  0.00    +0.000 N 
ATOM      3  C2  UNL     1      -1.403  -2.958  -0.935  0.00  0.00    +0.000 A 
ATOM      4  O1  UNL     1      -2.368  -2.819  -1.733  0.00  0.00    +0.000 OA
ATOM      5  C3  UNL     1      -0.675  -1.853  -0.493  0.00  0.00    +0.000 A 
ATOM      6  C4  UNL     1       0.329  -2.020   0.402  0.00  0.00    +0.000 A 
ATOM      7  N2  UNL     1       0.880  -0.839   0.736  0.00  0.00    +0.000 NA
ATOM      8  C5  UNL     1       0.167   0.045  -0.007  0.00  0.00    +0.000 A 
ATOM      9  N3  UNL     1       0.424   1.458   0.015  0.00  0.00    +0.000 N 
ATOM     10  N4  UNL     1      -0.794  -0.536  -0.776  0.00  0.00    +0.000 N 
ATOM     11  N5  UNL     1       0.685  -3.240   0.885  0.00  0.00    +0.000 N 
ATOM     12  C25 UNL     1       1.752  -3.363   1.888  0.00  0.00    +0.000 C 
ATOM     13  C26 UNL     1      -0.034  -4.337   0.465  0.00  0.00    +0.000 A 
ATOM     14  O4  UNL     1       0.235  -5.477   0.940  0.00  0.00    +0.000 OA
ATOM     15  H4  UNL     1      -0.149   2.099  -0.576  0.00  0.00    +0.000 HD
ENDROOT
BRANCH   9  16
ATOM     16  C6  UNL     1       1.461   2.048   0.860  0.00  0.00    +0.000 C 
BRANCH  16  17
ATOM     17  C7  UNL     1       2.824   1.577   0.428  0.00  0.00    +0.000 A 
ATOM     18  C8  UNL     1       3.322   1.928  -0.853  0.00  0.00    +0.000 A 
ATOM     19  C9  UNL     1       4.574   1.455  -1.286  0.00  0.00    +0.000 A 
ATOM     20  C10 UNL     1       5.296   0.639  -0.419  0.00  0.00    +0.000 A 
ATOM     21  O2  UNL     1       6.527   0.047  -0.621  0.00  0.00    +0.000 OA
ATOM     22  C11 UNL     1       6.849  -0.713   0.553  0.00  0.00    +0.000 C 
ATOM     23  O3  UNL     1       5.740  -0.518   1.441  0.00  0.00    +0.000 OA
ATOM     24  C12 UNL     1       4.827   0.304   0.808  0.00  0.00    +0.000 A 
ATOM     25  C13 UNL     1       3.596   0.752   1.277  0.00  0.00    +0.000 A 
ENDBRANCH  16  17
ENDBRANCH   9  16
BRANCH  10  26
ATOM     26  C14 UNL     1      -1.739   0.154  -1.666  0.00  0.00    +0.000 C 
BRANCH  26  27
ATOM     27  C15 UNL     1      -2.812   0.867  -0.858  0.00  0.00    +0.000 A 
ATOM     28  C16 UNL     1      -3.503   0.105   0.103  0.00  0.00    +0.000 A 
ATOM     29  C17 UNL     1      -4.476   0.677   0.917  0.00  0.00    +0.000 A 
ATOM     30  C18 UNL     1      -4.795   2.023   0.787  0.00  0.00    +0.000 A 
ATOM     31  C19 UNL     1      -4.159   2.810  -0.180  0.00  0.00    +0.000 A 
ATOM     32  C20 UNL     1      -4.512   4.163  -0.307  0.00  0.00    +0.000 A 
ATOM     33  C21 UNL     1      -3.908   4.960  -1.277  0.00  0.00    +0.000 A 
ATOM     34  C22 UNL     1      -2.955   4.415  -2.133  0.00  0.00    +0.000 A 
ATOM     35  C23 UNL     1      -2.589   3.070  -2.021  0.00  0.00    +0.000 A 
ATOM     36  C24 UNL     1      -3.168   2.240  -1.032  0.00  0.00    +0.000 A 
ENDBRANCH  26  27
ENDBRANCH  10  26
TORSDOF 4
