REMARK  Name = CNP0056360_1.pdb
REMARK  8 active torsions:
REMARK  status: ('A' for Active; 'I' for Inactive)
REMARK    1  A    between atoms: C1_1  and  C2_2
REMARK    2  A    between atoms: C2_2  and  C17_21
REMARK    3  A    between atoms: N1_3  and  C3_4
REMARK    4  A    between atoms: C3_4  and  C4_5
REMARK    5  A    between atoms: C4_5  and  C5_6
REMARK    6  A    between atoms: C4_5  and  N2_7
REMARK    7  A    between atoms: C6_8  and  C7_9
REMARK    8  A    between atoms: C6_8  and  C8_10
REMARK                            x       y       z     vdW  Elec       q    Type
REMARK                         _______ _______ _______ _____ _____    ______ ____
ROOT
ATOM      1  C4  UNL     1       0.194   0.570   1.087  0.00  0.00    +0.000 C 
ATOM      2  C5  UNL     1      -0.375   0.625   2.507  0.00  0.00    +0.000 C 
ENDROOT
BRANCH   1   3
ATOM      3  N2  UNL     1       1.652   0.455   1.179  0.00  0.00    +0.000 NA
ATOM      4  C6  UNL     1       2.537   0.715   0.254  0.00  0.00    +0.000 C 
ATOM      5  C7  UNL     1       2.141   1.192  -1.124  0.00  0.00    +0.000 C 
BRANCH   4   6
ATOM      6  C8  UNL     1       3.972   0.461   0.556  0.00  0.00    +0.000 A 
ATOM      7  C9  UNL     1       4.833  -0.024  -0.441  0.00  0.00    +0.000 A 
ATOM      8  C10 UNL     1       6.175  -0.274  -0.144  0.00  0.00    +0.000 A 
ATOM      9  C11 UNL     1       7.064  -0.761  -1.114  0.00  0.00    +0.000 A 
ATOM     10  C12 UNL     1       8.400  -1.000  -0.777  0.00  0.00    +0.000 A 
ATOM     11  C13 UNL     1       8.851  -0.757   0.525  0.00  0.00    +0.000 A 
ATOM     12  C14 UNL     1       7.969  -0.273   1.496  0.00  0.00    +0.000 A 
ATOM     13  C15 UNL     1       6.630  -0.030   1.168  0.00  0.00    +0.000 A 
ATOM     14  O1  UNL     1       5.793   0.428   2.092  0.00  0.00    +0.000 OA
ATOM     15  C16 UNL     1       4.510   0.678   1.845  0.00  0.00    +0.000 A 
ATOM     16  O2  UNL     1       3.789   1.126   2.776  0.00  0.00    +0.000 OA
ENDBRANCH   4   6
ENDBRANCH   1   3
BRANCH   1  17
ATOM     17  C3  UNL     1      -0.385  -0.632   0.315  0.00  0.00    +0.000 C 
BRANCH  17  20
ATOM     18  C1  UNL     1      -1.765   1.118  -1.694  0.00  0.00    +0.000 C 
ATOM     19  C2  UNL     1      -2.481   0.238  -0.698  0.00  0.00    +0.000 C 
ATOM     20  N1  UNL     1      -1.836  -0.515   0.150  0.00  0.00    +0.000 NA
BRANCH  19  21
ATOM     21  C17 UNL     1      -3.966   0.225  -0.655  0.00  0.00    +0.000 A 
ATOM     22  C18 UNL     1      -4.642  -0.985  -0.435  0.00  0.00    +0.000 A 
ATOM     23  C19 UNL     1      -6.038  -1.008  -0.398  0.00  0.00    +0.000 A 
ATOM     24  C20 UNL     1      -6.748  -2.200  -0.193  0.00  0.00    +0.000 A 
ATOM     25  C21 UNL     1      -8.146  -2.182  -0.167  0.00  0.00    +0.000 A 
ATOM     26  C22 UNL     1      -8.838  -0.979  -0.344  0.00  0.00    +0.000 A 
ATOM     27  C23 UNL     1      -8.134   0.212  -0.549  0.00  0.00    +0.000 A 
ATOM     28  C24 UNL     1      -6.735   0.205  -0.577  0.00  0.00    +0.000 A 
ATOM     29  O3  UNL     1      -6.069   1.338  -0.767  0.00  0.00    +0.000 OA
ATOM     30  C25 UNL     1      -4.740   1.397  -0.807  0.00  0.00    +0.000 A 
ATOM     31  O4  UNL     1      -4.188   2.519  -0.959  0.00  0.00    +0.000 OA
ENDBRANCH  19  21
ENDBRANCH  17  20
ENDBRANCH   1  17
TORSDOF 5
