REMARK  Name = CNP0159470_1.pdb
REMARK  0 active torsions:
REMARK  status: ('A' for Active; 'I' for Inactive)
REMARK                            x       y       z     vdW  Elec       q    Type
REMARK                         _______ _______ _______ _____ _____    ______ ____
ROOT
ATOM      1  O1  UNL     1      -3.261  -2.878   5.149  0.00  0.00    +0.000 OA
ATOM      2  C1  UNL     1      -3.096  -2.588   3.974  0.00  0.00    +0.000 C 
ATOM      3  C2  UNL     1      -1.766  -2.850   3.322  0.00  0.00    +0.000 C 
ATOM      4  C3  UNL     1      -1.833  -2.600   1.808  0.00  0.00    +0.000 C 
ATOM      5  C4  UNL     1      -2.435  -1.203   1.463  0.00  0.00    +0.000 C 
ATOM      6  C5  UNL     1      -2.648  -1.010  -0.030  0.00  0.00    +0.000 C 
ATOM      7  C6  UNL     1      -3.226  -1.923  -0.820  0.00  0.00    +0.000 C 
ATOM      8  C7  UNL     1      -3.409  -1.776  -2.284  0.00  0.00    +0.000 C 
ATOM      9  O2  UNL     1      -4.428  -2.315  -2.790  0.00  0.00    +0.000 OA
ATOM     10  N1  UNL     1      -2.449  -1.167  -3.175  0.00  0.00    +0.000 N 
ATOM     11  C8  UNL     1      -1.294  -0.359  -2.771  0.00  0.00    +0.000 C 
ATOM     12  C9  UNL     1      -0.351  -0.092  -3.959  0.00  0.00    +0.000 C 
ATOM     13  C10 UNL     1       0.559   1.135  -3.738  0.00  0.00    +0.000 C 
ATOM     14  N2  UNL     1       1.519   0.978  -2.633  0.00  0.00    +0.000 NA
ATOM     15  C11 UNL     1       2.657   0.121  -2.992  0.00  0.00    +0.000 C 
ATOM     16  C12 UNL     1       3.766   0.248  -1.941  0.00  0.00    +0.000 C 
ATOM     17  C13 UNL     1       4.389   1.656  -1.927  0.00  0.00    +0.000 C 
ATOM     18  C14 UNL     1       5.339   1.849  -0.736  0.00  0.00    +0.000 C 
ATOM     19  N3  UNL     1       4.594   1.862   0.521  0.00  0.00    +0.000 N 
ATOM     20  C15 UNL     1       3.721   2.945   0.872  0.00  0.00    +0.000 C 
ATOM     21  O3  UNL     1       4.047   4.127   0.584  0.00  0.00    +0.000 OA
ATOM     22  C16 UNL     1       2.426   2.704   1.537  0.00  0.00    +0.000 C 
ATOM     23  C17 UNL     1       1.867   1.489   1.577  0.00  0.00    +0.000 C 
ATOM     24  C18 UNL     1       0.491   1.234   2.056  0.00  0.00    +0.000 A 
ATOM     25  C19 UNL     1      -0.161   2.060   3.007  0.00  0.00    +0.000 A 
ATOM     26  C20 UNL     1      -1.481   1.781   3.404  0.00  0.00    +0.000 A 
ATOM     27  C21 UNL     1      -2.126   0.683   2.841  0.00  0.00    +0.000 A 
ATOM     28  O4  UNL     1      -3.421   0.276   3.076  0.00  0.00    +0.000 OA
ATOM     29  C22 UNL     1      -3.746  -0.865   2.275  0.00  0.00    +0.000 C 
ATOM     30  C23 UNL     1      -4.235  -2.010   3.177  0.00  0.00    +0.000 C 
ATOM     31  C24 UNL     1      -1.502  -0.129   1.941  0.00  0.00    +0.000 A 
ATOM     32  C25 UNL     1      -0.191   0.119   1.532  0.00  0.00    +0.000 A 
ATOM     33  H7  UNL     1      -2.618  -1.315  -4.196  0.00  0.00    +0.000 HD
ATOM     34  H14 UNL     1       1.043   0.595  -1.784  0.00  0.00    +0.000 HD
ATOM     35  H23 UNL     1       4.658   1.027   1.147  0.00  0.00    +0.000 HD
ENDROOT
TORSDOF 0
