REMARK  Name = CNP0071486_1.pdb
REMARK  8 active torsions:
REMARK  status: ('A' for Active; 'I' for Inactive)
REMARK    1  A    between atoms: C1_1  and  C2_2
REMARK    2  A    between atoms: C4_4  and  O1_5
REMARK    3  A    between atoms: C11_12  and  C12_13
REMARK    4  A    between atoms: C11_12  and  C13_14
REMARK    5  A    between atoms: C17_18  and  C18_19
REMARK    6  A    between atoms: C22_26  and  C23_27
REMARK    7  A    between atoms: C30_36  and  O7_37
REMARK    8  A    between atoms: C31_38  and  C32_39
REMARK                            x       y       z     vdW  Elec       q    Type
REMARK                         _______ _______ _______ _____ _____    ______ ____
ROOT
ATOM      1  C1  UNL     1       6.534  -0.304   1.008  0.00  0.00    +0.000 C 
ATOM      2  C2  UNL     1       5.608   0.883   1.032  0.00  0.00    +0.000 A 
ATOM      3  C3  UNL     1       5.984   2.026   1.761  0.00  0.00    +0.000 A 
ATOM      4  C4  UNL     1       5.153   3.147   1.805  0.00  0.00    +0.000 A 
ATOM      5  C5  UNL     1       3.930   3.135   1.126  0.00  0.00    +0.000 A 
ATOM      6  C6  UNL     1       3.532   2.007   0.403  0.00  0.00    +0.000 A 
ATOM      7  C7  UNL     1       4.383   0.879   0.320  0.00  0.00    +0.000 A 
ATOM      8  C8  UNL     1       3.951  -0.339  -0.481  0.00  0.00    +0.000 C 
ATOM      9  C9  UNL     1       2.794  -0.020  -1.453  0.00  0.00    +0.000 C 
ATOM     10  C10 UNL     1       2.425  -1.210  -2.420  0.00  0.00    +0.000 C 
ATOM     11  C11 UNL     1       1.535  -2.462  -2.046  0.00  0.00    +0.000 C 
ATOM     12  C12 UNL     1       1.950  -3.140  -0.719  0.00  0.00    +0.000 C 
ATOM     13  C13 UNL     1       1.811  -3.537  -3.135  0.00  0.00    +0.000 C 
ATOM     14  C14 UNL     1       0.041  -2.123  -2.235  0.00  0.00    +0.000 C 
ATOM     15  C15 UNL     1      -1.052  -2.198  -1.435  0.00  0.00    +0.000 C 
ATOM     16  C16 UNL     1      -1.163  -2.451   0.054  0.00  0.00    +0.000 C 
ATOM     17  C17 UNL     1      -2.035  -1.364   0.767  0.00  0.00    +0.000 C 
ATOM     18  C18 UNL     1      -1.910  -1.591   2.291  0.00  0.00    +0.000 C 
ATOM     19  O2  UNL     1      -3.388  -1.680   0.413  0.00  0.00    +0.000 OA
ATOM     20  C19 UNL     1      -4.457  -0.779   0.395  0.00  0.00    +0.000 C 
ATOM     21  C20 UNL     1      -5.690  -1.277   0.488  0.00  0.00    +0.000 C 
ATOM     22  C21 UNL     1      -6.849  -0.390   0.468  0.00  0.00    +0.000 C 
ATOM     23  O3  UNL     1      -8.009  -0.871   0.407  0.00  0.00    +0.000 OA
ATOM     24  O4  UNL     1      -6.671   0.992   0.508  0.00  0.00    +0.000 OA
ATOM     25  C22 UNL     1      -5.394   1.621   0.696  0.00  0.00    +0.000 C 
ATOM     26  C23 UNL     1      -5.304   2.065   2.161  0.00  0.00    +0.000 C 
ATOM     27  C24 UNL     1      -5.351   2.821  -0.271  0.00  0.00    +0.000 C 
ATOM     28  C25 UNL     1      -4.762   2.199  -1.480  0.00  0.00    +0.000 C 
ATOM     29  O5  UNL     1      -4.834   2.690  -2.639  0.00  0.00    +0.000 OA
ATOM     30  O6  UNL     1      -4.160   0.983  -1.208  0.00  0.00    +0.000 OA
ATOM     31  C26 UNL     1      -4.212   0.698   0.189  0.00  0.00    +0.000 C 
ATOM     32  C27 UNL     1      -2.848   1.080   0.817  0.00  0.00    +0.000 C 
ATOM     33  C28 UNL     1      -1.703   0.147   0.362  0.00  0.00    +0.000 C 
ATOM     34  C29 UNL     1      -0.370   0.754   0.908  0.00  0.00    +0.000 C 
ATOM     35  C30 UNL     1       0.925   0.105   0.361  0.00  0.00    +0.000 C 
ATOM     36  C31 UNL     1       1.666   0.857  -0.788  0.00  0.00    +0.000 C 
ATOM     37  C32 UNL     1       0.695   1.341  -1.884  0.00  0.00    +0.000 C 
ATOM     38  O8  UNL     1       2.281   2.022  -0.232  0.00  0.00    +0.000 OA
ENDROOT
BRANCH   4  39
ATOM     39  O1  UNL     1       5.551   4.267   2.532  0.00  0.00    +0.000 OA
ATOM     40  H5  UNL     1       4.968   5.092   2.590  0.00  0.00    +0.000 HD
ENDBRANCH   4  39
BRANCH  35  41
ATOM     41  O7  UNL     1       1.794  -0.128   1.444  0.00  0.00    +0.000 OA
ATOM     42  H37 UNL     1       1.451  -0.933   1.923  0.00  0.00    +0.000 HD
ENDBRANCH  35  41
TORSDOF 2
