REMARK  Name = CNP0192238_3.pdb
REMARK  6 active torsions:
REMARK  status: ('A' for Active; 'I' for Inactive)
REMARK    1  A    between atoms: C1_1  and  C2_2
REMARK    2  A    between atoms: C8_11  and  C9_12
REMARK    3  A    between atoms: C9_12  and  C10_13
REMARK    4  A    between atoms: C13_16  and  O2_17
REMARK    5  A    between atoms: N3_23  and  C18_24
REMARK    6  A    between atoms: C18_24  and  C19_25
REMARK                            x       y       z     vdW  Elec       q    Type
REMARK                         _______ _______ _______ _____ _____    ______ ____
ROOT
ATOM      1  C1  UNL     1       0.788   3.862  -2.137  0.00  0.00    +0.000 C 
ATOM      2  C2  UNL     1      -0.272   3.611  -1.108  0.00  0.00    +0.000 A 
ATOM      3  C3  UNL     1      -1.352   4.510  -0.951  0.00  0.00    +0.000 A 
ATOM      4  C4  UNL     1      -2.353   4.260  -0.001  0.00  0.00    +0.000 A 
ATOM      5  C5  UNL     1      -2.239   3.127   0.801  0.00  0.00    +0.000 A 
ATOM      6  N1  UNL     1      -3.205   2.665   1.725  0.00  0.00    +0.000 N 
ATOM      7  C6  UNL     1      -2.701   1.420   2.191  0.00  0.00    +0.000 C 
ATOM      8  O1  UNL     1      -3.334   0.692   3.000  0.00  0.00    +0.000 OA
ATOM      9  C7  UNL     1      -1.338   1.083   1.615  0.00  0.00    +0.000 C 
ATOM     10  N2  UNL     1      -1.354  -0.172   0.861  0.00  0.00    +0.000 NA
ATOM     11  C8  UNL     1      -1.002  -1.227   1.814  0.00  0.00    +0.000 C 
ATOM     12  C16 UNL     1      -0.118  -0.584   2.914  0.00  0.00    +0.000 C 
ATOM     13  C17 UNL     1       1.362  -0.789   2.754  0.00  0.00    +0.000 C 
ATOM     14  O3  UNL     1       1.943  -1.892   2.945  0.00  0.00    +0.000 OA
ATOM     15  N3  UNL     1       2.061   0.398   2.433  0.00  0.00    +0.000 N 
ATOM     16  C26 UNL     1       1.089   1.427   2.418  0.00  0.00    +0.000 C 
ATOM     17  O6  UNL     1       1.384   2.640   2.245  0.00  0.00    +0.000 OA
ATOM     18  C27 UNL     1      -0.296   0.939   2.745  0.00  0.00    +0.000 C 
ATOM     19  C28 UNL     1      -1.170   2.261   0.686  0.00  0.00    +0.000 A 
ATOM     20  C29 UNL     1      -0.194   2.463  -0.294  0.00  0.00    +0.000 A 
ATOM     21  H6  UNL     1      -4.126   3.102   1.954  0.00  0.00    +0.000 HD
ATOM     22  H7  UNL     1      -2.305  -0.358   0.461  0.00  0.00    +0.000 HD
ENDROOT
BRANCH  11  23
ATOM     23  C9  UNL     1      -0.366  -2.424   1.078  0.00  0.00    +0.000 C 
BRANCH  23  24
ATOM     24  C10 UNL     1      -1.314  -3.024   0.072  0.00  0.00    +0.000 A 
ATOM     25  C11 UNL     1      -2.310  -3.923   0.486  0.00  0.00    +0.000 A 
ATOM     26  C12 UNL     1      -3.205  -4.460  -0.444  0.00  0.00    +0.000 A 
ATOM     27  C13 UNL     1      -3.119  -4.097  -1.795  0.00  0.00    +0.000 A 
ATOM     28  C14 UNL     1      -2.135  -3.192  -2.209  0.00  0.00    +0.000 A 
ATOM     29  C15 UNL     1      -1.238  -2.657  -1.283  0.00  0.00    +0.000 A 
BRANCH  27  30
ATOM     30  O2  UNL     1      -4.005  -4.626  -2.730  0.00  0.00    +0.000 OA
ATOM     31  H13 UNL     1      -4.727  -5.284  -2.463  0.00  0.00    +0.000 HD
ENDBRANCH  27  30
ENDBRANCH  23  24
ENDBRANCH  11  23
BRANCH  15  32
ATOM     32  C18 UNL     1       3.401   0.474   1.853  0.00  0.00    +0.000 C 
BRANCH  32  33
ATOM     33  C19 UNL     1       3.326   0.319   0.359  0.00  0.00    +0.000 A 
ATOM     34  C20 UNL     1       3.428   1.452  -0.489  0.00  0.00    +0.000 A 
ATOM     35  C21 UNL     1       3.293   1.315  -1.882  0.00  0.00    +0.000 A 
ATOM     36  C22 UNL     1       3.036   0.045  -2.388  0.00  0.00    +0.000 A 
ATOM     37  O4  UNL     1       2.834  -0.334  -3.701  0.00  0.00    +0.000 OA
ATOM     38  C23 UNL     1       2.587  -1.747  -3.721  0.00  0.00    +0.000 C 
ATOM     39  O5  UNL     1       2.670  -2.160  -2.350  0.00  0.00    +0.000 OA
ATOM     40  C24 UNL     1       2.938  -1.042  -1.584  0.00  0.00    +0.000 A 
ATOM     41  C25 UNL     1       3.088  -0.954  -0.204  0.00  0.00    +0.000 A 
ENDBRANCH  32  33
ENDBRANCH  15  32
TORSDOF 5
