REMARK  Name = CNP0489376_1.pdb
REMARK  6 active torsions:
REMARK  status: ('A' for Active; 'I' for Inactive)
REMARK    1  A    between atoms: C1_1  and  C2_2
REMARK    2  A    between atoms: C14_16  and  C15_17
REMARK    3  A    between atoms: C15_17  and  N1_18
REMARK    4  A    between atoms: N1_18  and  C16_19
REMARK    5  A    between atoms: C27_32  and  O4_33
REMARK    6  A    between atoms: C28_34  and  O5_35
REMARK                            x       y       z     vdW  Elec       q    Type
REMARK                         _______ _______ _______ _____ _____    ______ ____
ROOT
ATOM      1  C16 UNL     1       0.803   0.656  -1.888  0.00  0.00    +0.000 A 
ATOM      2  C17 UNL     1       0.772   1.916  -2.538  0.00  0.00    +0.000 A 
ATOM      3  C18 UNL     1       1.810   2.845  -2.364  0.00  0.00    +0.000 A 
ATOM      4  C19 UNL     1       2.882   2.507  -1.540  0.00  0.00    +0.000 A 
ATOM      5  C20 UNL     1       4.042   3.318  -1.203  0.00  0.00    +0.000 C 
ATOM      6  O3  UNL     1       4.239   4.476  -1.654  0.00  0.00    +0.000 OA
ATOM      7  S1  UNL     1       5.168   2.498  -0.067  0.00  0.00    +0.000 S 
ATOM      8  C21 UNL     1       4.028   1.096  -0.100  0.00  0.00    +0.000 A 
ATOM      9  C22 UNL     1       2.924   1.292  -0.908  0.00  0.00    +0.000 A 
ATOM     10  C23 UNL     1       1.904   0.342  -1.047  0.00  0.00    +0.000 A 
ATOM     11  C24 UNL     1       2.015  -0.850  -0.303  0.00  0.00    +0.000 A 
ATOM     12  C25 UNL     1       3.134  -1.071   0.528  0.00  0.00    +0.000 A 
ATOM     13  C26 UNL     1       4.161  -0.099   0.626  0.00  0.00    +0.000 A 
ATOM     14  C27 UNL     1       5.304  -0.310   1.596  0.00  0.00    +0.000 C 
ATOM     15  C28 UNL     1       5.618  -1.818   1.776  0.00  0.00    +0.000 C 
ATOM     16  C29 UNL     1       4.365  -2.644   1.941  0.00  0.00    +0.000 C 
ATOM     17  C30 UNL     1       3.232  -2.318   1.312  0.00  0.00    +0.000 C 
ENDROOT
BRANCH   1  18
ATOM     18  N1  UNL     1      -0.263  -0.288  -2.091  0.00  0.00    +0.000 N 
ATOM     19  H14 UNL     1      -0.040  -1.307  -2.137  0.00  0.00    +0.000 HD
BRANCH  18  20
ATOM     20  C15 UNL     1      -1.675   0.094  -2.161  0.00  0.00    +0.000 C 
BRANCH  20  36
ATOM     21  C1  UNL     1      -5.082   3.052   0.222  0.00  0.00    +0.000 C 
ATOM     22  C2  UNL     1      -3.986   2.030   0.312  0.00  0.00    +0.000 C 
ATOM     23  C3  UNL     1      -3.360   1.831   1.487  0.00  0.00    +0.000 C 
ATOM     24  C4  UNL     1      -2.269   0.842   1.610  0.00  0.00    +0.000 C 
ATOM     25  O1  UNL     1      -1.696   0.676   2.720  0.00  0.00    +0.000 OA
ATOM     26  C5  UNL     1      -1.871   0.002   0.422  0.00  0.00    +0.000 C 
ATOM     27  C6  UNL     1      -2.700  -1.267   0.429  0.00  0.00    +0.000 A 
ATOM     28  C7  UNL     1      -2.221  -2.415   1.080  0.00  0.00    +0.000 A 
ATOM     29  C8  UNL     1      -3.000  -3.573   1.129  0.00  0.00    +0.000 A 
ATOM     30  C9  UNL     1      -4.266  -3.593   0.538  0.00  0.00    +0.000 A 
ATOM     31  C10 UNL     1      -4.759  -2.454  -0.105  0.00  0.00    +0.000 A 
ATOM     32  C11 UNL     1      -3.986  -1.282  -0.162  0.00  0.00    +0.000 A 
ATOM     33  C12 UNL     1      -4.482  -0.072  -0.867  0.00  0.00    +0.000 C 
ATOM     34  O2  UNL     1      -5.620  -0.066  -1.408  0.00  0.00    +0.000 OA
ATOM     35  C13 UNL     1      -3.637   1.181  -0.901  0.00  0.00    +0.000 C 
ATOM     36  C14 UNL     1      -2.130   0.819  -0.870  0.00  0.00    +0.000 C 
ENDBRANCH  20  36
ENDBRANCH  18  20
ENDBRANCH   1  18
BRANCH  14  37
ATOM     37  O4  UNL     1       4.948   0.256   2.830  0.00  0.00    +0.000 OA
ATOM     38  H19 UNL     1       5.790   0.394   3.338  0.00  0.00    +0.000 HD
ENDBRANCH  14  37
BRANCH  15  39
ATOM     39  O5  UNL     1       6.378  -2.303   0.696  0.00  0.00    +0.000 OA
ATOM     40  H21 UNL     1       5.836  -2.197  -0.129  0.00  0.00    +0.000 HD
ENDBRANCH  15  39
TORSDOF 5
