REMARK  Name = CNP0178720_1.pdb
REMARK  1 active torsions:
REMARK  status: ('A' for Active; 'I' for Inactive)
REMARK    1  A    between atoms: N3_19  and  C14_20
REMARK                            x       y       z     vdW  Elec       q    Type
REMARK                         _______ _______ _______ _____ _____    ______ ____
ROOT
ATOM      1  O1  UNL     1      -0.675   1.024  -1.557  0.00  0.00    +0.000 OA
ATOM      2  C1  UNL     1      -0.586   1.130  -0.305  0.00  0.00    +0.000 C 
ATOM      3  C2  UNL     1      -1.682   1.684   0.561  0.00  0.00    +0.000 C 
ATOM      4  C3  UNL     1      -1.013   1.837   1.936  0.00  0.00    +0.000 C 
ATOM      5  C4  UNL     1      -1.874   1.036   2.910  0.00  0.00    +0.000 C 
ATOM      6  N1  UNL     1      -2.677   0.101   2.127  0.00  0.00    +0.000 NA
ATOM      7  C5  UNL     1      -2.869   0.723   0.813  0.00  0.00    +0.000 C 
ATOM      8  C6  UNL     1      -4.189   1.464   0.720  0.00  0.00    +0.000 C 
ATOM      9  O2  UNL     1      -4.517   2.431   1.458  0.00  0.00    +0.000 OA
ATOM     10  N2  UNL     1      -5.040   0.954  -0.299  0.00  0.00    +0.000 N 
ATOM     11  C7  UNL     1      -4.338  -0.147  -0.844  0.00  0.00    +0.000 A 
ATOM     12  C8  UNL     1      -4.816  -1.026  -1.815  0.00  0.00    +0.000 A 
ATOM     13  C9  UNL     1      -4.018  -2.125  -2.170  0.00  0.00    +0.000 A 
ATOM     14  C10 UNL     1      -2.778  -2.338  -1.537  0.00  0.00    +0.000 A 
ATOM     15  C11 UNL     1      -2.324  -1.448  -0.551  0.00  0.00    +0.000 A 
ATOM     16  C12 UNL     1      -3.109  -0.332  -0.239  0.00  0.00    +0.000 A 
ATOM     17  C13 UNL     1       0.349   1.240   1.749  0.00  0.00    +0.000 C 
ATOM     18  O3  UNL     1       1.186   1.103   2.682  0.00  0.00    +0.000 OA
ATOM     19  N3  UNL     1       0.598   0.828   0.415  0.00  0.00    +0.000 N 
ATOM     20  H5  UNL     1      -3.591  -0.068   2.611  0.00  0.00    +0.000 HD
ATOM     21  H6  UNL     1      -6.005   1.273  -0.538  0.00  0.00    +0.000 HD
ENDROOT
BRANCH  19  22
ATOM     22  C14 UNL     1       1.797   0.226  -0.105  0.00  0.00    +0.000 A 
ATOM     23  C15 UNL     1       1.717  -0.809  -1.051  0.00  0.00    +0.000 A 
ATOM     24  C16 UNL     1       2.876  -1.401  -1.558  0.00  0.00    +0.000 A 
ATOM     25  C17 UNL     1       4.137  -0.964  -1.130  0.00  0.00    +0.000 A 
ATOM     26  C18 UNL     1       5.308  -1.551  -1.634  0.00  0.00    +0.000 A 
ATOM     27  C19 UNL     1       6.559  -1.104  -1.200  0.00  0.00    +0.000 A 
ATOM     28  C20 UNL     1       6.651  -0.071  -0.264  0.00  0.00    +0.000 A 
ATOM     29  C21 UNL     1       5.493   0.522   0.246  0.00  0.00    +0.000 A 
ATOM     30  C22 UNL     1       4.229   0.081  -0.180  0.00  0.00    +0.000 A 
ATOM     31  C23 UNL     1       3.059   0.669   0.325  0.00  0.00    +0.000 A 
ENDBRANCH  19  22
TORSDOF 1
