REMARK  Name = CNP0040680_2.pdb
REMARK  7 active torsions:
REMARK  status: ('A' for Active; 'I' for Inactive)
REMARK    1  A    between atoms: C1_1  and  C2_2
REMARK    2  A    between atoms: C5_5  and  N1_6
REMARK    3  A    between atoms: C10_12  and  C11_13
REMARK    4  A    between atoms: C11_13  and  O3_15
REMARK    5  A    between atoms: O3_15  and  C12_16
REMARK    6  A    between atoms: N2_29  and  C23_30
REMARK    7  A    between atoms: C26_33  and  C27_34
REMARK                            x       y       z     vdW  Elec       q    Type
REMARK                         _______ _______ _______ _____ _____    ______ ____
ROOT
ATOM      1  N1  UNL     1      -3.510   0.256  -0.179  0.00  0.00    +0.000 N 
ATOM      2  C6  UNL     1      -2.913   0.432  -1.482  0.00  0.00    +0.000 C 
ATOM      3  O1  UNL     1      -3.524   0.840  -2.504  0.00  0.00    +0.000 OA
ATOM      4  C7  UNL     1      -1.443   0.333  -1.335  0.00  0.00    +0.000 C 
ATOM      5  C8  UNL     1      -0.252   0.128  -2.333  0.00  0.00    +0.000 C 
ATOM      6  C9  UNL     1       0.092  -1.376  -2.384  0.00  0.00    +0.000 C 
ATOM      7  C10 UNL     1       0.477  -1.928  -1.185  0.00  0.00    +0.000 C 
ATOM      8  C18 UNL     1       0.177  -1.052   0.057  0.00  0.00    +0.000 C 
ATOM      9  C19 UNL     1      -1.349  -0.727  -0.203  0.00  0.00    +0.000 C 
ATOM     10  C20 UNL     1      -2.462  -0.270   0.663  0.00  0.00    +0.000 C 
ATOM     11  O4  UNL     1      -2.582  -0.512   1.893  0.00  0.00    +0.000 OA
ATOM     12  C21 UNL     1       0.950   0.304  -0.096  0.00  0.00    +0.000 C 
ATOM     13  C22 UNL     1       2.265   0.801   0.368  0.00  0.00    +0.000 C 
ATOM     14  O5  UNL     1       2.893   0.393   1.382  0.00  0.00    +0.000 OA
ATOM     15  N2  UNL     1       2.591   1.990  -0.383  0.00  0.00    +0.000 N 
ATOM     16  C30 UNL     1       1.673   2.010  -1.496  0.00  0.00    +0.000 C 
ATOM     17  O6  UNL     1       1.599   2.930  -2.353  0.00  0.00    +0.000 OA
ATOM     18  C31 UNL     1       1.040   0.675  -1.603  0.00  0.00    +0.000 C 
ENDROOT
BRANCH   1  23
ATOM     19  C1  UNL     1      -8.840   1.780   1.367  0.00  0.00    +0.000 C 
ATOM     20  C2  UNL     1      -7.448   1.379   0.979  0.00  0.00    +0.000 A 
ATOM     21  C3  UNL     1      -6.366   1.602   1.843  0.00  0.00    +0.000 A 
ATOM     22  C4  UNL     1      -5.073   1.230   1.465  0.00  0.00    +0.000 A 
ATOM     23  C5  UNL     1      -4.841   0.632   0.215  0.00  0.00    +0.000 A 
ATOM     24  C32 UNL     1      -5.926   0.412  -0.648  0.00  0.00    +0.000 A 
ATOM     25  C33 UNL     1      -7.220   0.782  -0.269  0.00  0.00    +0.000 A 
ENDBRANCH   1  23
BRANCH  15  26
ATOM     26  C23 UNL     1       3.624   2.946  -0.092  0.00  0.00    +0.000 A 
ATOM     27  C24 UNL     1       3.398   4.319  -0.285  0.00  0.00    +0.000 A 
ATOM     28  C25 UNL     1       4.402   5.250  -0.005  0.00  0.00    +0.000 A 
ATOM     29  C26 UNL     1       5.654   4.821   0.459  0.00  0.00    +0.000 A 
ATOM     30  C27 UNL     1       6.723   5.818   0.794  0.00  0.00    +0.000 C 
ATOM     31  C28 UNL     1       5.878   3.452   0.668  0.00  0.00    +0.000 A 
ATOM     32  C29 UNL     1       4.874   2.521   0.389  0.00  0.00    +0.000 A 
ENDBRANCH  15  26
BRANCH   7  33
ATOM     33  C11 UNL     1       1.031  -3.287  -1.071  0.00  0.00    +0.000 C 
ATOM     34  O2  UNL     1       1.217  -3.980  -2.110  0.00  0.00    +0.000 OA
BRANCH  33  35
ATOM     35  O3  UNL     1       1.416  -3.764   0.189  0.00  0.00    +0.000 OA
BRANCH  35  36
ATOM     36  C12 UNL     1       1.807  -5.079   0.483  0.00  0.00    +0.000 A 
ATOM     37  C13 UNL     1       2.709  -5.285   1.535  0.00  0.00    +0.000 A 
ATOM     38  C14 UNL     1       3.139  -6.576   1.860  0.00  0.00    +0.000 A 
ATOM     39  C15 UNL     1       2.655  -7.674   1.146  0.00  0.00    +0.000 A 
ATOM     40  C16 UNL     1       1.735  -7.484   0.112  0.00  0.00    +0.000 A 
ATOM     41  C17 UNL     1       1.302  -6.193  -0.215  0.00  0.00    +0.000 A 
ENDBRANCH  35  36
ENDBRANCH  33  35
ENDBRANCH   7  33
TORSDOF 5
