REMARK  Name = CNP0105209_1.pdb
REMARK  2 active torsions:
REMARK  status: ('A' for Active; 'I' for Inactive)
REMARK    1  A    between atoms: N1_7  and  C5_8
REMARK    2  A    between atoms: C12_17  and  C13_18
REMARK                            x       y       z     vdW  Elec       q    Type
REMARK                         _______ _______ _______ _____ _____    ______ ____
ROOT
ATOM      1  O1  UNL     1       1.940   1.993  -1.610  0.00  0.00    +0.000 OA
ATOM      2  C1  UNL     1       1.311   0.920  -1.408  0.00  0.00    +0.000 C 
ATOM      3  C2  UNL     1      -0.087   0.668  -1.899  0.00  0.00    +0.000 C 
ATOM      4  C3  UNL     1      -0.340  -0.800  -1.562  0.00  0.00    +0.000 C 
ATOM      5  C4  UNL     1       0.934  -1.243  -0.897  0.00  0.00    +0.000 C 
ATOM      6  O2  UNL     1       1.147  -2.425  -0.512  0.00  0.00    +0.000 OA
ATOM      7  N1  UNL     1       1.894  -0.207  -0.781  0.00  0.00    +0.000 N 
ATOM      8  C11 UNL     1      -1.581  -0.754  -0.645  0.00  0.00    +0.000 C 
ATOM      9  O3  UNL     1      -1.779   0.564  -0.191  0.00  0.00    +0.000 OA
ATOM     10  C12 UNL     1      -1.198   1.425  -1.144  0.00  0.00    +0.000 C 
ATOM     11  C19 UNL     1      -2.816  -1.248  -1.368  0.00  0.00    +0.000 C 
ATOM     12  O4  UNL     1      -3.289  -0.736  -2.417  0.00  0.00    +0.000 OA
ATOM     13  C20 UNL     1      -3.388  -2.398  -0.684  0.00  0.00    +0.000 A 
ATOM     14  C21 UNL     1      -4.507  -3.163  -1.018  0.00  0.00    +0.000 A 
ATOM     15  C22 UNL     1      -4.859  -4.229  -0.173  0.00  0.00    +0.000 A 
ATOM     16  C23 UNL     1      -4.096  -4.506   0.980  0.00  0.00    +0.000 A 
ATOM     17  C24 UNL     1      -2.975  -3.718   1.295  0.00  0.00    +0.000 A 
ATOM     18  C25 UNL     1      -2.643  -2.670   0.436  0.00  0.00    +0.000 A 
ATOM     19  C26 UNL     1      -1.560  -1.702   0.533  0.00  0.00    +0.000 C 
ATOM     20  O5  UNL     1      -0.774  -1.614   1.514  0.00  0.00    +0.000 OA
ENDROOT
BRANCH   7  21
ATOM     21  C5  UNL     1       3.132  -0.247  -0.051  0.00  0.00    +0.000 A 
ATOM     22  C6  UNL     1       3.514   0.838   0.757  0.00  0.00    +0.000 A 
ATOM     23  C7  UNL     1       4.716   0.799   1.471  0.00  0.00    +0.000 A 
ATOM     24  C8  UNL     1       5.546  -0.323   1.384  0.00  0.00    +0.000 A 
ATOM     25  I1  UNL     1       7.358  -0.380   2.462  0.00  0.00    +0.000 I 
ATOM     26  C9  UNL     1       5.174  -1.405   0.582  0.00  0.00    +0.000 A 
ATOM     27  C10 UNL     1       3.973  -1.369  -0.132  0.00  0.00    +0.000 A 
ENDBRANCH   7  21
BRANCH  10  28
ATOM     28  C13 UNL     1      -0.739   2.707  -0.480  0.00  0.00    +0.000 A 
ATOM     29  C14 UNL     1      -0.180   2.690   0.813  0.00  0.00    +0.000 A 
ATOM     30  C15 UNL     1       0.289   3.871   1.395  0.00  0.00    +0.000 A 
ATOM     31  C16 UNL     1       0.211   5.077   0.693  0.00  0.00    +0.000 A 
ATOM     32  C17 UNL     1      -0.330   5.102  -0.595  0.00  0.00    +0.000 A 
ATOM     33  C18 UNL     1      -0.798   3.923  -1.183  0.00  0.00    +0.000 A 
ENDBRANCH  10  28
TORSDOF 2
