REMARK  Name = CNP0156845_1.pdb
REMARK  4 active torsions:
REMARK  status: ('A' for Active; 'I' for Inactive)
REMARK    1  A    between atoms: C1_1  and  C2_2
REMARK    2  A    between atoms: C10_14  and  C11_15
REMARK    3  A    between atoms: C11_15  and  C12_16
REMARK    4  A    between atoms: N4_28  and  C22_29
REMARK                            x       y       z     vdW  Elec       q    Type
REMARK                         _______ _______ _______ _____ _____    ______ ____
ROOT
ATOM      1  C1  UNL     1      -3.101  -4.366   0.867  0.00  0.00    +0.000 C 
ATOM      2  C2  UNL     1      -2.581  -3.077   0.302  0.00  0.00    +0.000 A 
ATOM      3  C3  UNL     1      -3.081  -2.560  -0.910  0.00  0.00    +0.000 A 
ATOM      4  C4  UNL     1      -2.590  -1.346  -1.426  0.00  0.00    +0.000 A 
ATOM      5 CL1  UNL     1      -3.237  -0.705  -2.925  0.00  0.00    +0.000 Cl
ATOM      6  C5  UNL     1      -1.592  -0.637  -0.741  0.00  0.00    +0.000 A 
ATOM      7  C6  UNL     1      -1.106  -1.150   0.467  0.00  0.00    +0.000 A 
ATOM      8  C7  UNL     1      -1.591  -2.343   0.970  0.00  0.00    +0.000 A 
ATOM      9  N1  UNL     1      -0.980  -2.684   2.202  0.00  0.00    +0.000 N 
ATOM     10  C8  UNL     1      -0.064  -1.630   2.469  0.00  0.00    +0.000 C 
ATOM     11  O1  UNL     1       0.668  -1.612   3.494  0.00  0.00    +0.000 OA
ATOM     12  C9  UNL     1      -0.064  -0.559   1.399  0.00  0.00    +0.000 C 
ATOM     13  N2  UNL     1       1.232  -0.470   0.717  0.00  0.00    +0.000 NA
ATOM     14  C10 UNL     1       1.348   0.920   0.252  0.00  0.00    +0.000 C 
ATOM     15  C20 UNL     1       0.522   1.799   1.206  0.00  0.00    +0.000 C 
ATOM     16  C21 UNL     1      -0.433   2.705   0.489  0.00  0.00    +0.000 C 
ATOM     17  O2  UNL     1      -0.069   3.641  -0.272  0.00  0.00    +0.000 OA
ATOM     18  N4  UNL     1      -1.794   2.436   0.791  0.00  0.00    +0.000 N 
ATOM     19  C28 UNL     1      -1.774   1.346   1.700  0.00  0.00    +0.000 C 
ATOM     20  O3  UNL     1      -2.816   0.834   2.189  0.00  0.00    +0.000 OA
ATOM     21  C29 UNL     1      -0.390   0.838   1.977  0.00  0.00    +0.000 C 
ATOM     22  H6  UNL     1      -1.159  -3.525   2.794  0.00  0.00    +0.000 HD
ATOM     23  H7  UNL     1       1.987  -0.646   1.422  0.00  0.00    +0.000 HD
ENDROOT
BRANCH  18  24
ATOM     24  C22 UNL     1      -2.945   2.900   0.065  0.00  0.00    +0.000 A 
ATOM     25  C23 UNL     1      -2.896   3.050  -1.332  0.00  0.00    +0.000 A 
ATOM     26  C24 UNL     1      -4.026   3.477  -2.035  0.00  0.00    +0.000 A 
ATOM     27  C25 UNL     1      -5.212   3.758  -1.351  0.00  0.00    +0.000 A 
ATOM     28  C26 UNL     1      -5.270   3.610   0.037  0.00  0.00    +0.000 A 
ATOM     29  C27 UNL     1      -4.142   3.181   0.744  0.00  0.00    +0.000 A 
ENDBRANCH  18  24
BRANCH  14  30
ATOM     30  C11 UNL     1       2.816   1.386   0.170  0.00  0.00    +0.000 C 
BRANCH  30  31
ATOM     31  C12 UNL     1       3.589   0.568  -0.823  0.00  0.00    +0.000 A 
ATOM     32  C13 UNL     1       3.535   0.692  -2.209  0.00  0.00    +0.000 A 
ATOM     33  N3  UNL     1       4.298  -0.257  -2.798  0.00  0.00    +0.000 N 
ATOM     34  C14 UNL     1       4.824  -0.985  -1.797  0.00  0.00    +0.000 A 
ATOM     35  C15 UNL     1       5.668  -2.089  -1.910  0.00  0.00    +0.000 A 
ATOM     36  C16 UNL     1       6.092  -2.717  -0.725  0.00  0.00    +0.000 A 
ATOM     37  C17 UNL     1       5.668  -2.233   0.532  0.00  0.00    +0.000 A 
ATOM     38  C18 UNL     1       4.816  -1.117   0.617  0.00  0.00    +0.000 A 
ATOM     39  C19 UNL     1       4.412  -0.514  -0.576  0.00  0.00    +0.000 A 
ATOM     40  H12 UNL     1       4.435  -0.401  -3.823  0.00  0.00    +0.000 HD
ENDBRANCH  30  31
ENDBRANCH  14  30
TORSDOF 3
