REMARK  Name = CNP0165924_1.pdb
REMARK  10 active torsions:
REMARK  status: ('A' for Active; 'I' for Inactive)
REMARK    1  A    between atoms: C1_1  and  C2_2
REMARK    2  A    between atoms: C6_8  and  C7_9
REMARK    3  A    between atoms: C8_10  and  O3_11
REMARK    4  A    between atoms: O3_11  and  C9_12
REMARK    5  A    between atoms: C9_12  and  C10_14
REMARK    6  A    between atoms: C10_14  and  N1_15
REMARK    7  A    between atoms: C10_14  and  C19_26
REMARK    8  A    between atoms: C11_16  and  O6_18
REMARK    9  A    between atoms: O6_18  and  C12_19
REMARK   10  A    between atoms: C12_19  and  C13_20
REMARK                            x       y       z     vdW  Elec       q    Type
REMARK                         _______ _______ _______ _____ _____    ______ ____
ROOT
ATOM      1  C10 UNL     1       0.648   1.334  -1.895  0.00  0.00    +0.000 C 
ENDROOT
BRANCH   1   2
ATOM      2  C19 UNL     1       0.735   2.733  -1.325  0.00  0.00    +0.000 A 
ATOM      3  C20 UNL     1       0.611   2.954   0.058  0.00  0.00    +0.000 A 
ATOM      4  C21 UNL     1       0.681   4.251   0.576  0.00  0.00    +0.000 A 
ATOM      5  C22 UNL     1       0.877   5.338  -0.279  0.00  0.00    +0.000 A 
ATOM      6  C23 UNL     1       0.999   5.129  -1.654  0.00  0.00    +0.000 A 
ATOM      7  C24 UNL     1       0.926   3.834  -2.178  0.00  0.00    +0.000 A 
ENDBRANCH   1   2
BRANCH   1   8
ATOM      8  N1  UNL     1       1.562   0.432  -1.184  0.00  0.00    +0.000 N 
ATOM      9  C11 UNL     1       2.984   0.535  -1.315  0.00  0.00    +0.000 C 
ATOM     10  O5  UNL     1       3.493   1.379  -2.102  0.00  0.00    +0.000 OA
ATOM     11  H9  UNL     1       1.188  -0.282  -0.520  0.00  0.00    +0.000 HD
BRANCH   9  12
ATOM     12  O6  UNL     1       3.802  -0.295  -0.542  0.00  0.00    +0.000 OA
BRANCH  12  13
ATOM     13  C12 UNL     1       5.224  -0.270  -0.628  0.00  0.00    +0.000 C 
BRANCH  13  14
ATOM     14  C13 UNL     1       5.799  -1.283   0.320  0.00  0.00    +0.000 A 
ATOM     15  C14 UNL     1       6.578  -0.880   1.420  0.00  0.00    +0.000 A 
ATOM     16  C15 UNL     1       7.090  -1.834   2.303  0.00  0.00    +0.000 A 
ATOM     17  C16 UNL     1       6.825  -3.193   2.098  0.00  0.00    +0.000 A 
ATOM     18  C17 UNL     1       6.050  -3.600   1.009  0.00  0.00    +0.000 A 
ATOM     19  C18 UNL     1       5.538  -2.649   0.122  0.00  0.00    +0.000 A 
ENDBRANCH  13  14
ENDBRANCH  12  13
ENDBRANCH   9  12
ENDBRANCH   1   8
BRANCH   1  20
ATOM     20  C9  UNL     1      -0.770   0.839  -1.810  0.00  0.00    +0.000 C 
ATOM     21  O4  UNL     1      -1.514   0.921  -2.825  0.00  0.00    +0.000 OA
BRANCH  20  22
ATOM     22  O3  UNL     1      -1.279   0.403  -0.579  0.00  0.00    +0.000 OA
BRANCH  22  32
ATOM     23  C1  UNL     1      -6.925  -3.011  -0.742  0.00  0.00    +0.000 C 
ATOM     24  C2  UNL     1      -6.242  -2.144   0.284  0.00  0.00    +0.000 A 
ATOM     25  C3  UNL     1      -6.869  -1.919   1.515  0.00  0.00    +0.000 A 
ATOM     26  C4  UNL     1      -6.242  -1.114   2.467  0.00  0.00    +0.000 A 
ATOM     27  O1  UNL     1      -6.795  -0.908   3.580  0.00  0.00    +0.000 OA
ATOM     28  O2  UNL     1      -5.063  -0.561   2.210  0.00  0.00    +0.000 OA
ATOM     29  C5  UNL     1      -4.417  -0.734   1.058  0.00  0.00    +0.000 A 
ATOM     30  C6  UNL     1      -3.166  -0.113   0.857  0.00  0.00    +0.000 A 
ATOM     31  C7  UNL     1      -2.575   0.770   1.928  0.00  0.00    +0.000 C 
ATOM     32  C8  UNL     1      -2.504  -0.256  -0.380  0.00  0.00    +0.000 A 
ATOM     33  C25 UNL     1      -3.061  -1.084  -1.370  0.00  0.00    +0.000 A 
ATOM     34  C26 UNL     1      -4.287  -1.714  -1.165  0.00  0.00    +0.000 A 
ATOM     35  C27 UNL     1      -4.987  -1.540   0.041  0.00  0.00    +0.000 A 
ENDBRANCH  22  32
ENDBRANCH  20  22
ENDBRANCH   1  20
TORSDOF 8
