REMARK  Name = CNP0148074_1.pdb
REMARK  11 active torsions:
REMARK  status: ('A' for Active; 'I' for Inactive)
REMARK    1  A    between atoms: C1_1  and  C2_2
REMARK    2  A    between atoms: C4_4  and  C5_5
REMARK    3  A    between atoms: C5_5  and  O1_6
REMARK    4  A    between atoms: C5_5  and  C6_7
REMARK    5  A    between atoms: C6_7  and  C7_8
REMARK    6  A    between atoms: C6_7  and  C8_9
REMARK    7  A    between atoms: C11_12  and  O2_13
REMARK    8  A    between atoms: C16_18  and  C17_19
REMARK    9  A    between atoms: C16_18  and  C18_20
REMARK   10  A    between atoms: C24_29  and  O6_30
REMARK   11  A    between atoms: C27_33  and  C28_34
REMARK                            x       y       z     vdW  Elec       q    Type
REMARK                         _______ _______ _______ _____ _____    ______ ____
ROOT
ATOM      1  C8  UNL     1       2.661  -0.252   0.511  0.00  0.00    +0.000 C 
ATOM      2  C9  UNL     1       2.484  -0.462   2.045  0.00  0.00    +0.000 C 
ATOM      3  C10 UNL     1       0.980  -0.418   2.353  0.00  0.00    +0.000 C 
ATOM      4  C11 UNL     1       0.311  -0.462   0.975  0.00  0.00    +0.000 C 
ATOM      5  C12 UNL     1      -1.161   0.071   0.879  0.00  0.00    +0.000 C 
ATOM      6  C13 UNL     1      -2.098  -0.681   1.854  0.00  0.00    +0.000 C 
ATOM      7  C14 UNL     1      -3.488  -0.036   2.006  0.00  0.00    +0.000 C 
ATOM      8  C15 UNL     1      -4.512  -0.550   0.956  0.00  0.00    +0.000 C 
ATOM      9  C16 UNL     1      -6.012  -0.221   1.265  0.00  0.00    +0.000 C 
ATOM     10  C17 UNL     1      -6.894  -1.457   0.985  0.00  0.00    +0.000 C 
ATOM     11  C18 UNL     1      -6.298   0.233   2.712  0.00  0.00    +0.000 C 
ATOM     12  O3  UNL     1      -6.441   0.818   0.413  0.00  0.00    +0.000 OA
ATOM     13  C19 UNL     1      -5.531   0.955  -0.654  0.00  0.00    +0.000 C 
ATOM     14  C20 UNL     1      -6.205   0.544  -1.974  0.00  0.00    +0.000 C 
ATOM     15  C21 UNL     1      -5.523  -0.719  -2.297  0.00  0.00    +0.000 C 
ATOM     16  O4  UNL     1      -5.827  -1.461  -3.267  0.00  0.00    +0.000 OA
ATOM     17  O5  UNL     1      -4.505  -1.014  -1.420  0.00  0.00    +0.000 OA
ATOM     18  C22 UNL     1      -4.319   0.015  -0.455  0.00  0.00    +0.000 C 
ATOM     19  C23 UNL     1      -3.001   0.780  -0.773  0.00  0.00    +0.000 C 
ATOM     20  C24 UNL     1      -1.660  -0.006  -0.611  0.00  0.00    +0.000 C 
ATOM     21  C25 UNL     1      -0.612   0.647  -1.580  0.00  0.00    +0.000 C 
ATOM     22  C26 UNL     1       0.848   0.191  -1.370  0.00  0.00    +0.000 C 
ATOM     23  C27 UNL     1       1.290   0.384   0.102  0.00  0.00    +0.000 C 
ATOM     24  C28 UNL     1       1.302   1.911   0.463  0.00  0.00    +0.000 C 
ENDROOT
BRANCH   1  25
ATOM     25  C6  UNL     1       4.023   0.467   0.146  0.00  0.00    +0.000 C 
ATOM     26  C7  UNL     1       5.186  -0.298   0.820  0.00  0.00    +0.000 C 
BRANCH  25  27
ATOM     27  C5  UNL     1       4.216   0.625  -1.412  0.00  0.00    +0.000 C 
BRANCH  27  31
ATOM     28  C1  UNL     1       8.733  -1.467  -1.377  0.00  0.00    +0.000 C 
ATOM     29  C2  UNL     1       7.640  -0.453  -1.483  0.00  0.00    +0.000 C 
ATOM     30  C3  UNL     1       6.413  -0.675  -1.939  0.00  0.00    +0.000 C 
ATOM     31  C4  UNL     1       5.653   0.626  -2.013  0.00  0.00    +0.000 C 
ATOM     32  O7  UNL     1       6.523   1.576  -1.406  0.00  0.00    +0.000 OA
ATOM     33  C29 UNL     1       7.737   0.957  -1.169  0.00  0.00    +0.000 C 
ATOM     34  O8  UNL     1       8.751   1.544  -0.708  0.00  0.00    +0.000 OA
ENDBRANCH  27  31
BRANCH  27  35
ATOM     35  O1  UNL     1       3.622   1.835  -1.805  0.00  0.00    +0.000 OA
ATOM     36  H7  UNL     1       3.440   1.781  -2.780  0.00  0.00    +0.000 HD
ENDBRANCH  27  35
ENDBRANCH  25  27
ENDBRANCH   1  25
BRANCH   4  37
ATOM     37  O2  UNL     1       0.340  -1.806   0.518  0.00  0.00    +0.000 OA
ATOM     38  H17 UNL     1      -0.078  -2.393   1.199  0.00  0.00    +0.000 HD
ENDBRANCH   4  37
BRANCH  20  39
ATOM     39  O6  UNL     1      -1.836  -1.359  -0.969  0.00  0.00    +0.000 OA
ATOM     40  H35 UNL     1      -2.064  -1.400  -1.935  0.00  0.00    +0.000 HD
ENDBRANCH  20  39
TORSDOF 6
