REMARK  Name = CNP0573407_1.pdb
REMARK  6 active torsions:
REMARK  status: ('A' for Active; 'I' for Inactive)
REMARK    1  A    between atoms: C1_1  and  C2_2
REMARK    2  A    between atoms: C5_5  and  C6_6
REMARK    3  A    between atoms: C7_7  and  N1_8
REMARK    4  A    between atoms: C7_7  and  C16_18
REMARK    5  A    between atoms: C8_9  and  C9_11
REMARK    6  A    between atoms: C12_14  and  C13_15
REMARK                            x       y       z     vdW  Elec       q    Type
REMARK                         _______ _______ _______ _____ _____    ______ ____
ROOT
ATOM      1  C6  UNL     1       0.280   1.607  -0.638  0.00  0.00    +0.000 C 
ATOM      2  C7  UNL     1      -0.106   0.321  -0.553  0.00  0.00    +0.000 C 
ENDROOT
BRANCH   2   3
ATOM      3  C16 UNL     1       0.910  -0.739  -0.694  0.00  0.00    +0.000 C 
ATOM      4  O2  UNL     1       1.008  -1.318  -1.808  0.00  0.00    +0.000 OA
ATOM      5  N2  UNL     1       1.776  -1.121   0.400  0.00  0.00    +0.000 N 
ATOM      6  C17 UNL     1       1.767  -0.390   1.679  0.00  0.00    +0.000 C 
ATOM      7  C18 UNL     1       3.169  -0.392   2.330  0.00  0.00    +0.000 C 
ATOM      8  C19 UNL     1       3.702  -1.819   2.440  0.00  0.00    +0.000 C 
ATOM      9  C20 UNL     1       3.795  -2.401   1.031  0.00  0.00    +0.000 C 
ATOM     10  C21 UNL     1       2.396  -2.456   0.395  0.00  0.00    +0.000 C 
ATOM     11  C22 UNL     1       4.705  -1.544   0.181  0.00  0.00    +0.000 A 
ATOM     12  C23 UNL     1       5.368  -2.146  -0.899  0.00  0.00    +0.000 A 
ATOM     13  C24 UNL     1       6.165  -1.377  -1.738  0.00  0.00    +0.000 A 
ATOM     14  C25 UNL     1       6.294  -0.012  -1.505  0.00  0.00    +0.000 A 
ATOM     15  C26 UNL     1       5.618   0.574  -0.431  0.00  0.00    +0.000 A 
ATOM     16  O3  UNL     1       5.764   1.812  -0.227  0.00  0.00    +0.000 OA
ATOM     17  N3  UNL     1       4.816  -0.183   0.392  0.00  0.00    +0.000 N 
ATOM     18  C27 UNL     1       4.174   0.487   1.552  0.00  0.00    +0.000 C 
ENDBRANCH   2   3
BRANCH   1  23
ATOM     19  C1  UNL     1      -3.269   6.148  -0.052  0.00  0.00    +0.000 C 
ATOM     20  C2  UNL     1      -2.364   4.961  -0.207  0.00  0.00    +0.000 A 
ATOM     21  C3  UNL     1      -2.436   3.892   0.699  0.00  0.00    +0.000 A 
ATOM     22  C4  UNL     1      -1.578   2.796   0.565  0.00  0.00    +0.000 A 
ATOM     23  C5  UNL     1      -0.638   2.755  -0.480  0.00  0.00    +0.000 A 
ATOM     24  C28 UNL     1      -0.532   3.848  -1.352  0.00  0.00    +0.000 A 
ATOM     25  C29 UNL     1      -1.391   4.943  -1.219  0.00  0.00    +0.000 A 
ENDBRANCH   1  23
BRANCH   2  26
ATOM     26  N1  UNL     1      -1.500  -0.040  -0.534  0.00  0.00    +0.000 N 
ATOM     27  C8  UNL     1      -1.988  -1.243   0.081  0.00  0.00    +0.000 C 
ATOM     28  O1  UNL     1      -1.266  -1.858   0.913  0.00  0.00    +0.000 OA
ATOM     29  H7  UNL     1      -2.192   0.616  -0.959  0.00  0.00    +0.000 HD
BRANCH  27  30
ATOM     30  C9  UNL     1      -3.349  -1.752  -0.215  0.00  0.00    +0.000 A 
ATOM     31  C10 UNL     1      -4.003  -2.597   0.700  0.00  0.00    +0.000 A 
ATOM     32  C11 UNL     1      -5.283  -3.089   0.426  0.00  0.00    +0.000 A 
ATOM     33  C12 UNL     1      -5.934  -2.744  -0.766  0.00  0.00    +0.000 A 
ATOM     34  C13 UNL     1      -7.288  -3.304  -1.086  0.00  0.00    +0.000 C 
ATOM     35  C14 UNL     1      -5.278  -1.921  -1.693  0.00  0.00    +0.000 A 
ATOM     36  C15 UNL     1      -3.999  -1.426  -1.421  0.00  0.00    +0.000 A 
ENDBRANCH  27  30
ENDBRANCH   2  26
TORSDOF 4
