REMARK  Name = CNP0055815_4.pdb
REMARK  6 active torsions:
REMARK  status: ('A' for Active; 'I' for Inactive)
REMARK    1  A    between atoms: C1_1  and  C2_2
REMARK    2  A    between atoms: N1_6  and  C6_7
REMARK    3  A    between atoms: C6_7  and  C7_8
REMARK    4  A    between atoms: C8_9  and  O1_10
REMARK    5  A    between atoms: C14_17  and  C15_18
REMARK    6  A    between atoms: N2_20  and  C17_21
REMARK                            x       y       z     vdW  Elec       q    Type
REMARK                         _______ _______ _______ _____ _____    ______ ____
ROOT
ATOM      1  C7  UNL     1      -1.913  -0.280   1.866  0.00  0.00    +0.000 A 
ATOM      2  C8  UNL     1      -2.352   0.620   2.867  0.00  0.00    +0.000 A 
ATOM      3  C9  UNL     1      -1.479   1.619   3.359  0.00  0.00    +0.000 A 
ATOM      4  C10 UNL     1      -0.173   1.739   2.857  0.00  0.00    +0.000 A 
ATOM      5  C11 UNL     1       0.231   0.847   1.870  0.00  0.00    +0.000 A 
ATOM      6  C12 UNL     1      -0.609  -0.130   1.380  0.00  0.00    +0.000 A 
ATOM      7  O2  UNL     1       0.008  -0.882   0.381  0.00  0.00    +0.000 OA
ATOM      8  C13 UNL     1       1.301  -0.383   0.216  0.00  0.00    +0.000 C 
ATOM      9  C14 UNL     1       2.163  -0.878  -0.678  0.00  0.00    +0.000 C 
ATOM     10  C24 UNL     1       1.482   0.740   1.146  0.00  0.00    +0.000 C 
ATOM     11  O3  UNL     1       2.471   1.514   1.241  0.00  0.00    +0.000 OA
ENDROOT
BRANCH   9  12
ATOM     12  C15 UNL     1       3.551  -0.412  -0.821  0.00  0.00    +0.000 A 
ATOM     13  C16 UNL     1       4.166  -0.052  -2.014  0.00  0.00    +0.000 A 
ATOM     14  N2  UNL     1       5.472   0.233  -1.799  0.00  0.00    +0.000 N 
ATOM     15  C17 UNL     1       6.453   0.593  -2.818  0.00  0.00    +0.000 C 
ATOM     16  C18 UNL     1       5.700   0.013  -0.489  0.00  0.00    +0.000 A 
ATOM     17  C19 UNL     1       6.914   0.102   0.199  0.00  0.00    +0.000 A 
ATOM     18  C20 UNL     1       6.925  -0.237   1.564  0.00  0.00    +0.000 A 
ATOM     19  C21 UNL     1       5.743  -0.668   2.204  0.00  0.00    +0.000 A 
ATOM     20  C22 UNL     1       4.537  -0.758   1.487  0.00  0.00    +0.000 A 
ATOM     21  C23 UNL     1       4.548  -0.390   0.140  0.00  0.00    +0.000 A 
ENDBRANCH   9  12
BRANCH   2  22
ATOM     22  O1  UNL     1      -3.651   0.525   3.365  0.00  0.00    +0.000 OA
ATOM     23  H13 UNL     1      -3.993   1.158   4.079  0.00  0.00    +0.000 HD
ENDBRANCH   2  22
BRANCH   1  24
ATOM     24  C6  UNL     1      -2.837  -1.326   1.296  0.00  0.00    +0.000 C 
BRANCH  24  30
ATOM     25  C1  UNL     1      -3.901   1.363  -2.750  0.00  0.00    +0.000 C 
ATOM     26  C2  UNL     1      -4.297   0.135  -1.922  0.00  0.00    +0.000 C 
ATOM     27  C3  UNL     1      -5.696   0.311  -1.313  0.00  0.00    +0.000 C 
ATOM     28  C4  UNL     1      -6.120  -0.952  -0.546  0.00  0.00    +0.000 C 
ATOM     29  C5  UNL     1      -4.928  -1.669   0.114  0.00  0.00    +0.000 C 
ATOM     30  N1  UNL     1      -3.857  -0.704   0.427  0.00  0.00    +0.000 NA
ATOM     31  C25 UNL     1      -3.248  -0.165  -0.817  0.00  0.00    +0.000 C 
ENDBRANCH  24  30
ENDBRANCH   1  24
TORSDOF 4
