REMARK  Name = CNP0033430_1.pdb
REMARK  5 active torsions:
REMARK  status: ('A' for Active; 'I' for Inactive)
REMARK    1  A    between atoms: C4_5  and  N1_6
REMARK    2  A    between atoms: N1_6  and  C5_7
REMARK    3  A    between atoms: C5_7  and  C6_8
REMARK    4  A    between atoms: N2_22  and  S1_23
REMARK    5  A    between atoms: S1_23  and  C19_26
REMARK                            x       y       z     vdW  Elec       q    Type
REMARK                         _______ _______ _______ _____ _____    ______ ____
ROOT
ATOM      1  O1  UNL     1       1.547  -4.506  -0.803  0.00  0.00    +0.000 OA
ATOM      2  C1  UNL     1       1.584  -3.595   0.070  0.00  0.00    +0.000 A 
ATOM      3  C2  UNL     1       2.823  -3.172   0.536  0.00  0.00    +0.000 A 
ATOM      4  C3  UNL     1       2.896  -2.184   1.502  0.00  0.00    +0.000 A 
ATOM      5  C4  UNL     1       1.730  -1.611   2.029  0.00  0.00    +0.000 A 
ATOM      6  C14 UNL     1       0.469  -2.077   1.554  0.00  0.00    +0.000 A 
ATOM      7  C15 UNL     1      -0.829  -1.459   2.094  0.00  0.00    +0.000 C 
ATOM      8  C16 UNL     1      -2.034  -2.328   1.783  0.00  0.00    +0.000 C 
ATOM      9  C17 UNL     1      -2.024  -2.577   0.282  0.00  0.00    +0.000 C 
ATOM     10  C18 UNL     1      -1.848  -1.268  -0.555  0.00  0.00    +0.000 C 
ATOM     11  N2  UNL     1      -1.840  -0.021   0.239  0.00  0.00    +0.000 NA
ATOM     12  C25 UNL     1      -1.068  -0.043   1.510  0.00  0.00    +0.000 C 
ATOM     13  C26 UNL     1      -0.861  -3.541   0.008  0.00  0.00    +0.000 C 
ATOM     14  N3  UNL     1       0.424  -3.035   0.549  0.00  0.00    +0.000 N 
ENDROOT
BRANCH  11  15
ATOM     15  S1  UNL     1      -3.430   0.706   0.368  0.00  0.00    +0.000 S 
ATOM     16  O3  UNL     1      -3.396   1.905   1.275  0.00  0.00    +0.000 OA
ATOM     17  O4  UNL     1      -4.425  -0.281   0.910  0.00  0.00    +0.000 OA
BRANCH  15  18
ATOM     18  C19 UNL     1      -3.934   1.244  -1.231  0.00  0.00    +0.000 A 
ATOM     19  C20 UNL     1      -4.925   0.549  -1.942  0.00  0.00    +0.000 A 
ATOM     20  C21 UNL     1      -5.291   0.968  -3.224  0.00  0.00    +0.000 A 
ATOM     21  C22 UNL     1      -4.670   2.078  -3.802  0.00  0.00    +0.000 A 
ATOM     22  C23 UNL     1      -3.682   2.771  -3.099  0.00  0.00    +0.000 A 
ATOM     23  C24 UNL     1      -3.312   2.354  -1.817  0.00  0.00    +0.000 A 
ENDBRANCH  15  18
ENDBRANCH  11  15
BRANCH   5  24
ATOM     24  N1  UNL     1       1.828  -0.554   3.016  0.00  0.00    +0.000 N 
ATOM     25  H3  UNL     1       1.002  -0.287   3.596  0.00  0.00    +0.000 HD
BRANCH  24  26
ATOM     26  C5  UNL     1       3.015   0.285   3.196  0.00  0.00    +0.000 C 
BRANCH  26  27
ATOM     27  C6  UNL     1       3.294   1.063   1.947  0.00  0.00    +0.000 A 
ATOM     28  C7  UNL     1       4.500   1.068   1.250  0.00  0.00    +0.000 A 
ATOM     29  C8  UNL     1       4.271   1.912   0.187  0.00  0.00    +0.000 A 
ATOM     30  C9  UNL     1       5.110   2.326  -0.848  0.00  0.00    +0.000 A 
ATOM     31  C10 UNL     1       4.586   3.223  -1.798  0.00  0.00    +0.000 A 
ATOM     32  C11 UNL     1       3.252   3.683  -1.687  0.00  0.00    +0.000 A 
ATOM     33  C12 UNL     1       2.430   3.248  -0.628  0.00  0.00    +0.000 A 
ATOM     34  C13 UNL     1       2.978   2.358   0.296  0.00  0.00    +0.000 A 
ATOM     35  O2  UNL     1       2.404   1.843   1.356  0.00  0.00    +0.000 OA
ENDBRANCH  26  27
ENDBRANCH  24  26
ENDBRANCH   5  24
TORSDOF 5
