REMARK  Name = CNP0123550_1.pdb
REMARK  6 active torsions:
REMARK  status: ('A' for Active; 'I' for Inactive)
REMARK    1  A    between atoms: C1_1  and  C2_2
REMARK    2  A    between atoms: C3_3  and  C4_4
REMARK    3  A    between atoms: C4_4  and  C5_5
REMARK    4  A    between atoms: C14_16  and  O3_17
REMARK    5  A    between atoms: O3_17  and  C15_18
REMARK    6  A    between atoms: C15_18  and  C16_19
REMARK                            x       y       z     vdW  Elec       q    Type
REMARK                         _______ _______ _______ _____ _____    ______ ____
ROOT
ATOM      1  C1  UNL     1       4.137  -1.726   1.189  0.00  0.00    +0.000 C 
ATOM      2  C2  UNL     1       3.731  -0.817   0.045  0.00  0.00    +0.000 A 
ATOM      3  C3  UNL     1       4.513  -0.705  -1.139  0.00  0.00    +0.000 A 
ATOM      4  C11 UNL     1       4.063   0.167  -2.155  0.00  0.00    +0.000 A 
ATOM      5  O1  UNL     1       4.720   0.305  -3.222  0.00  0.00    +0.000 OA
ATOM      6  O2  UNL     1       2.945   0.863  -2.008  0.00  0.00    +0.000 OA
ATOM      7  C12 UNL     1       2.192   0.803  -0.921  0.00  0.00    +0.000 A 
ATOM      8  C13 UNL     1       1.036   1.586  -0.854  0.00  0.00    +0.000 A 
ATOM      9  C14 UNL     1       0.221   1.563   0.280  0.00  0.00    +0.000 A 
ATOM     10  C28 UNL     1       0.578   0.741   1.363  0.00  0.00    +0.000 A 
ATOM     11  C29 UNL     1       1.729  -0.049   1.303  0.00  0.00    +0.000 A 
ATOM     12  C30 UNL     1       2.553  -0.034   0.157  0.00  0.00    +0.000 A 
ENDROOT
BRANCH   3  13
ATOM     13  C4  UNL     1       5.827  -1.450  -1.324  0.00  0.00    +0.000 C 
BRANCH  13  14
ATOM     14  C5  UNL     1       6.927  -0.854  -0.479  0.00  0.00    +0.000 A 
ATOM     15  C6  UNL     1       7.262   0.506  -0.602  0.00  0.00    +0.000 A 
ATOM     16  C7  UNL     1       8.292   1.053   0.168  0.00  0.00    +0.000 A 
ATOM     17  C8  UNL     1       9.003   0.247   1.061  0.00  0.00    +0.000 A 
ATOM     18  C9  UNL     1       8.689  -1.110   1.178  0.00  0.00    +0.000 A 
ATOM     19  C10 UNL     1       7.662  -1.662   0.406  0.00  0.00    +0.000 A 
ENDBRANCH  13  14
ENDBRANCH   3  13
BRANCH   9  20
ATOM     20  O3  UNL     1      -0.927   2.371   0.288  0.00  0.00    +0.000 OA
BRANCH  20  21
ATOM     21  C15 UNL     1      -1.931   2.370   1.303  0.00  0.00    +0.000 C 
BRANCH  21  22
ATOM     22  C16 UNL     1      -2.676   1.062   1.324  0.00  0.00    +0.000 C 
ATOM     23  O4  UNL     1      -2.877   0.509   2.440  0.00  0.00    +0.000 OA
ATOM     24  N1  UNL     1      -3.167   0.439   0.116  0.00  0.00    +0.000 N 
ATOM     25  C17 UNL     1      -3.261   1.183  -1.152  0.00  0.00    +0.000 C 
ATOM     26  C18 UNL     1      -4.493   0.740  -1.974  0.00  0.00    +0.000 C 
ATOM     27  C19 UNL     1      -4.528  -0.780  -2.118  0.00  0.00    +0.000 C 
ATOM     28  C20 UNL     1      -4.599  -1.389  -0.719  0.00  0.00    +0.000 C 
ATOM     29  C21 UNL     1      -3.328  -1.023   0.064  0.00  0.00    +0.000 C 
ATOM     30  C22 UNL     1      -5.812  -0.864   0.019  0.00  0.00    +0.000 A 
ATOM     31  C23 UNL     1      -6.351  -1.645   1.054  0.00  0.00    +0.000 A 
ATOM     32  C24 UNL     1      -7.400  -1.151   1.820  0.00  0.00    +0.000 A 
ATOM     33  C25 UNL     1      -7.905   0.117   1.559  0.00  0.00    +0.000 A 
ATOM     34  C26 UNL     1      -7.355   0.883   0.528  0.00  0.00    +0.000 A 
ATOM     35  O5  UNL     1      -7.843   2.024   0.297  0.00  0.00    +0.000 OA
ATOM     36  N2  UNL     1      -6.307   0.402  -0.223  0.00  0.00    +0.000 N 
ATOM     37  C27 UNL     1      -5.818   1.230  -1.352  0.00  0.00    +0.000 C 
ENDBRANCH  21  22
ENDBRANCH  20  21
ENDBRANCH   9  20
TORSDOF 5
