REMARK  Name = CNP0134612_0.pdb
REMARK  5 active torsions:
REMARK  status: ('A' for Active; 'I' for Inactive)
REMARK    1  A    between atoms: C1_1  and  N1_2
REMARK    2  A    between atoms: N2_5  and  C3_6
REMARK    3  A    between atoms: C6_9  and  C7_10
REMARK    4  A    between atoms: C10_14  and  C11_15
REMARK    5  A    between atoms: N3_17  and  C12_18
REMARK                            x       y       z     vdW  Elec       q    Type
REMARK                         _______ _______ _______ _____ _____    ______ ____
ROOT
ATOM      1  C7  UNL     1      -0.013   0.190   0.075  0.00  0.00    +0.000 C 
ATOM      2  C8  UNL     1       0.165   1.588   0.571  0.00  0.00    +0.000 A 
ATOM      3  C9  UNL     1       0.781   2.345  -0.378  0.00  0.00    +0.000 A 
ATOM      4  O2  UNL     1       1.051   1.613  -1.516  0.00  0.00    +0.000 OA
ATOM      5  C10 UNL     1       0.601   0.266  -1.361  0.00  0.00    +0.000 C 
ATOM      6  C18 UNL     1       1.079   3.685  -0.145  0.00  0.00    +0.000 A 
ATOM      7  C19 UNL     1       1.712   4.497  -1.095  0.00  0.00    +0.000 A 
ATOM      8  C20 UNL     1       1.983   5.835  -0.790  0.00  0.00    +0.000 A 
ATOM      9  C21 UNL     1       1.627   6.361   0.457  0.00  0.00    +0.000 A 
ATOM     10  C22 UNL     1       0.996   5.553   1.411  0.00  0.00    +0.000 A 
ATOM     11  C23 UNL     1       0.718   4.213   1.120  0.00  0.00    +0.000 A 
ATOM     12  O4  UNL     1       0.121   3.437   2.032  0.00  0.00    +0.000 OA
ATOM     13  C24 UNL     1      -0.163   2.152   1.807  0.00  0.00    +0.000 A 
ATOM     14  O5  UNL     1      -0.719   1.462   2.702  0.00  0.00    +0.000 OA
ENDROOT
BRANCH   1  23
ATOM     15  C1  UNL     1      -6.629  -1.117  -0.416  0.00  0.00    +0.000 C 
ATOM     16  N1  UNL     1      -5.333  -1.651  -0.005  0.00  0.00    +0.000 N 
ATOM     17  C2  UNL     1      -5.075  -2.842   0.592  0.00  0.00    +0.000 A 
ATOM     18  O1  UNL     1      -5.960  -3.708   0.830  0.00  0.00    +0.000 OA
ATOM     19  N2  UNL     1      -3.765  -3.003   0.907  0.00  0.00    +0.000 N 
ATOM     20  C3  UNL     1      -3.120  -4.170   1.505  0.00  0.00    +0.000 C 
ATOM     21  C4  UNL     1      -3.182  -1.861   0.492  0.00  0.00    +0.000 A 
ATOM     22  C5  UNL     1      -1.838  -1.494   0.556  0.00  0.00    +0.000 A 
ATOM     23  C6  UNL     1      -1.470  -0.227   0.049  0.00  0.00    +0.000 A 
ATOM     24  C25 UNL     1      -2.464   0.617  -0.522  0.00  0.00    +0.000 A 
ATOM     25  C26 UNL     1      -3.810   0.216  -0.569  0.00  0.00    +0.000 A 
ATOM     26  C27 UNL     1      -4.133  -1.038  -0.052  0.00  0.00    +0.000 A 
ENDBRANCH   1  23
BRANCH   5  27
ATOM     27  C11 UNL     1       1.756  -0.683  -1.521  0.00  0.00    +0.000 C 
ATOM     28  O3  UNL     1       1.653  -1.651  -2.322  0.00  0.00    +0.000 OA
ATOM     29  N3  UNL     1       2.963  -0.485  -0.766  0.00  0.00    +0.000 N 
ATOM     30  H10 UNL     1       3.121   0.453  -0.333  0.00  0.00    +0.000 HD
BRANCH  29  31
ATOM     31  C12 UNL     1       4.015  -1.458  -0.657  0.00  0.00    +0.000 A 
ATOM     32  C13 UNL     1       3.737  -2.837  -0.605  0.00  0.00    +0.000 A 
ATOM     33  C14 UNL     1       4.777  -3.761  -0.463  0.00  0.00    +0.000 A 
ATOM     34  C15 UNL     1       6.098  -3.318  -0.359  0.00  0.00    +0.000 A 
ATOM     35  C16 UNL     1       6.381  -1.951  -0.391  0.00  0.00    +0.000 A 
ATOM     36  C17 UNL     1       5.344  -1.023  -0.531  0.00  0.00    +0.000 A 
ENDBRANCH  29  31
ENDBRANCH   5  27
TORSDOF 3
