REMARK  Name = CNP0357158_1.pdb
REMARK  3 active torsions:
REMARK  status: ('A' for Active; 'I' for Inactive)
REMARK    1  A    between atoms: C1_1  and  C2_2
REMARK    2  A    between atoms: C14_18  and  C15_19
REMARK    3  A    between atoms: C15_19  and  C16_20
REMARK                            x       y       z     vdW  Elec       q    Type
REMARK                         _______ _______ _______ _____ _____    ______ ____
ROOT
ATOM      1  C1  UNL     1      -2.199  -1.160   2.938  0.00  0.00    +0.000 C 
ATOM      2  C2  UNL     1      -2.414   0.071   2.033  0.00  0.00    +0.000 C 
ATOM      3  N1  UNL     1      -3.271   1.058   2.723  0.00  0.00    +0.000 N 
ATOM      4  C3  UNL     1      -3.639   2.185   1.917  0.00  0.00    +0.000 C 
ATOM      5  O1  UNL     1      -4.376   3.110   2.347  0.00  0.00    +0.000 OA
ATOM      6  C4  UNL     1      -3.061   2.160   0.531  0.00  0.00    +0.000 C 
ATOM      7  C5  UNL     1      -1.525   2.144   0.759  0.00  0.00    +0.000 C 
ATOM      8  C6  UNL     1      -1.097   0.821   1.553  0.00  0.00    +0.000 C 
ATOM      9  C7  UNL     1      -0.183   1.201   2.698  0.00  0.00    +0.000 A 
ATOM     10  C8  UNL     1      -0.459   1.995   3.819  0.00  0.00    +0.000 A 
ATOM     11  C9  UNL     1       0.584   2.298   4.708  0.00  0.00    +0.000 A 
ATOM     12  C10 UNL     1       1.886   1.830   4.460  0.00  0.00    +0.000 A 
ATOM     13  C11 UNL     1       2.154   1.065   3.315  0.00  0.00    +0.000 A 
ATOM     14  C12 UNL     1       1.097   0.771   2.451  0.00  0.00    +0.000 A 
ATOM     15  N2  UNL     1       1.185   0.042   1.244  0.00  0.00    +0.000 N 
ATOM     16  C13 UNL     1       2.034   0.378   0.175  0.00  0.00    +0.000 C 
ATOM     17  O2  UNL     1       3.237   0.719   0.324  0.00  0.00    +0.000 OA
ATOM     18  C14 UNL     1       1.310   0.363  -1.116  0.00  0.00    +0.000 C 
ATOM     19  N4  UNL     1      -0.107   0.168  -0.741  0.00  0.00    +0.000 NA
ATOM     20  C24 UNL     1      -0.151  -0.136   0.706  0.00  0.00    +0.000 C 
ATOM     21  N5  UNL     1      -3.435   0.847  -0.049  0.00  0.00    +0.000 N 
ATOM     22  C25 UNL     1      -3.137  -0.243   0.732  0.00  0.00    +0.000 A 
ATOM     23  N6  UNL     1      -3.387  -1.504   0.295  0.00  0.00    +0.000 NA
ATOM     24  C26 UNL     1      -3.957  -1.711  -0.920  0.00  0.00    +0.000 A 
ATOM     25  C27 UNL     1      -4.215  -3.016  -1.354  0.00  0.00    +0.000 A 
ATOM     26  C28 UNL     1      -4.790  -3.236  -2.609  0.00  0.00    +0.000 A 
ATOM     27  C29 UNL     1      -5.105  -2.155  -3.438  0.00  0.00    +0.000 A 
ATOM     28  C30 UNL     1      -4.848  -0.847  -3.015  0.00  0.00    +0.000 A 
ATOM     29  C31 UNL     1      -4.274  -0.613  -1.752  0.00  0.00    +0.000 A 
ATOM     30  C32 UNL     1      -3.991   0.685  -1.286  0.00  0.00    +0.000 A 
ATOM     31  O3  UNL     1      -4.241   1.690  -2.005  0.00  0.00    +0.000 OA
ATOM     32  H4  UNL     1      -3.599   0.949   3.710  0.00  0.00    +0.000 HD
ATOM     33  H21 UNL     1      -0.553  -0.615  -1.274  0.00  0.00    +0.000 HD
ENDROOT
BRANCH  18  34
ATOM     34  C15 UNL     1       1.819  -0.759  -2.046  0.00  0.00    +0.000 C 
BRANCH  34  35
ATOM     35  C16 UNL     1       3.154  -0.417  -2.641  0.00  0.00    +0.000 A 
ATOM     36  C17 UNL     1       3.380   0.450  -3.706  0.00  0.00    +0.000 A 
ATOM     37  N3  UNL     1       4.705   0.568  -3.948  0.00  0.00    +0.000 N 
ATOM     38  C18 UNL     1       5.318  -0.213  -3.041  0.00  0.00    +0.000 A 
ATOM     39  C19 UNL     1       6.689  -0.409  -2.887  0.00  0.00    +0.000 A 
ATOM     40  C20 UNL     1       7.120  -1.262  -1.854  0.00  0.00    +0.000 A 
ATOM     41  C21 UNL     1       6.181  -1.896  -1.011  0.00  0.00    +0.000 A 
ATOM     42  C22 UNL     1       4.802  -1.682  -1.191  0.00  0.00    +0.000 A 
ATOM     43  C23 UNL     1       4.405  -0.830  -2.223  0.00  0.00    +0.000 A 
ATOM     44  H16 UNL     1       5.155   1.153  -4.686  0.00  0.00    +0.000 HD
ENDBRANCH  34  35
ENDBRANCH  18  34
TORSDOF 2
