REMARK  Name = CNP0031723_0.pdb
REMARK  9 active torsions:
REMARK  status: ('A' for Active; 'I' for Inactive)
REMARK    1  A    between atoms: C1_1  and  C2_2
REMARK    2  A    between atoms: C3_3  and  N1_4
REMARK    3  A    between atoms: N1_4  and  N2_5
REMARK    4  A    between atoms: C4_6  and  C5_7
REMARK    5  A    between atoms: C4_6  and  S1_19
REMARK    6  A    between atoms: C5_7  and  C6_9
REMARK    7  A    between atoms: S1_19  and  C16_22
REMARK    8  A    between atoms: N3_30  and  C23_31
REMARK    9  A    between atoms: N4_37  and  C29_38
REMARK                            x       y       z     vdW  Elec       q    Type
REMARK                         _______ _______ _______ _____ _____    ______ ____
ROOT
ATOM      1  N2  UNL     1      -0.381  -0.295  -0.873  0.00  0.00    +0.000 NA
ATOM      2  C4  UNL     1      -1.275  -0.469  -1.806  0.00  0.00    +0.000 C 
ENDROOT
BRANCH   2   3
ATOM      3  S1  UNL     1      -1.510  -2.044  -2.592  0.00  0.00    +0.000 S 
ATOM      4  O2  UNL     1      -2.117  -1.869  -3.957  0.00  0.00    +0.000 OA
ATOM      5  O3  UNL     1      -0.183  -2.729  -2.772  0.00  0.00    +0.000 OA
BRANCH   3   6
ATOM      6  C16 UNL     1      -2.592  -3.024  -1.606  0.00  0.00    +0.000 A 
ATOM      7  C17 UNL     1      -3.927  -2.627  -1.445  0.00  0.00    +0.000 A 
ATOM      8  C18 UNL     1      -4.797  -3.387  -0.656  0.00  0.00    +0.000 A 
ATOM      9  C19 UNL     1      -4.337  -4.547  -0.024  0.00  0.00    +0.000 A 
ATOM     10  C20 UNL     1      -3.005  -4.945  -0.179  0.00  0.00    +0.000 A 
ATOM     11  C21 UNL     1      -2.133  -4.188  -0.970  0.00  0.00    +0.000 A 
ENDBRANCH   3   6
ENDBRANCH   2   3
BRANCH   1  12
ATOM     12  N1  UNL     1       0.414  -1.315  -0.321  0.00  0.00    +0.000 N 
ATOM     13  H4  UNL     1       0.066  -2.299  -0.295  0.00  0.00    +0.000 HD
BRANCH  12  16
ATOM     14  C1  UNL     1       2.058  -3.231   1.548  0.00  0.00    +0.000 C 
ATOM     15  C2  UNL     1       2.386  -1.813   1.182  0.00  0.00    +0.000 A 
ATOM     16  C3  UNL     1       1.630  -0.989   0.361  0.00  0.00    +0.000 A 
ATOM     17  C22 UNL     1       2.362   0.174   0.250  0.00  0.00    +0.000 A 
ATOM     18  O4  UNL     1       2.043   1.189  -0.425  0.00  0.00    +0.000 OA
ATOM     19  N3  UNL     1       3.500   0.058   0.965  0.00  0.00    +0.000 N 
ATOM     20  N4  UNL     1       3.530  -1.158   1.511  0.00  0.00    +0.000 N 
ATOM     21  C29 UNL     1       4.615  -1.680   2.343  0.00  0.00    +0.000 C 
BRANCH  19  22
ATOM     22  C23 UNL     1       4.555   1.037   1.028  0.00  0.00    +0.000 A 
ATOM     23  C24 UNL     1       5.048   1.479   2.268  0.00  0.00    +0.000 A 
ATOM     24  C25 UNL     1       6.090   2.412   2.319  0.00  0.00    +0.000 A 
ATOM     25  C26 UNL     1       6.642   2.913   1.136  0.00  0.00    +0.000 A 
ATOM     26  C27 UNL     1       6.146   2.491  -0.101  0.00  0.00    +0.000 A 
ATOM     27  C28 UNL     1       5.103   1.559  -0.156  0.00  0.00    +0.000 A 
ENDBRANCH  19  22
ENDBRANCH  12  16
ENDBRANCH   1  12
BRANCH   2  28
ATOM     28  C5  UNL     1      -2.142   0.675  -2.176  0.00  0.00    +0.000 C 
ATOM     29  O1  UNL     1      -2.939   0.578  -3.146  0.00  0.00    +0.000 OA
BRANCH  28  30
ATOM     30  C6  UNL     1      -2.136   1.925  -1.383  0.00  0.00    +0.000 A 
ATOM     31  C7  UNL     1      -0.950   2.675  -1.316  0.00  0.00    +0.000 A 
ATOM     32  C8  UNL     1      -0.893   3.857  -0.579  0.00  0.00    +0.000 A 
ATOM     33  C9  UNL     1      -2.023   4.320   0.095  0.00  0.00    +0.000 A 
ATOM     34  C10 UNL     1      -3.225   3.598   0.043  0.00  0.00    +0.000 A 
ATOM     35  C11 UNL     1      -4.358   4.066   0.728  0.00  0.00    +0.000 A 
ATOM     36  C12 UNL     1      -5.552   3.341   0.694  0.00  0.00    +0.000 A 
ATOM     37  C13 UNL     1      -5.625   2.145  -0.020  0.00  0.00    +0.000 A 
ATOM     38  C14 UNL     1      -4.505   1.664  -0.704  0.00  0.00    +0.000 A 
ATOM     39  C15 UNL     1      -3.291   2.385  -0.695  0.00  0.00    +0.000 A 
ENDBRANCH  28  30
ENDBRANCH   2  28
TORSDOF 7
