REMARK  Name = CNP0054636_2.pdb
REMARK  2 active torsions:
REMARK  status: ('A' for Active; 'I' for Inactive)
REMARK    1  A    between atoms: N1_7  and  C5_8
REMARK    2  A    between atoms: C12_17  and  C13_18
REMARK                            x       y       z     vdW  Elec       q    Type
REMARK                         _______ _______ _______ _____ _____    ______ ____
ROOT
ATOM      1  O1  UNL     1       2.314   2.154  -0.425  0.00  0.00    +0.000 OA
ATOM      2  C1  UNL     1       1.675   1.072  -0.340  0.00  0.00    +0.000 C 
ATOM      3  C2  UNL     1       0.196   0.941  -0.326  0.00  0.00    +0.000 C 
ATOM      4  C3  UNL     1       0.042  -0.463  -0.799  0.00  0.00    +0.000 C 
ATOM      5  C4  UNL     1       1.165  -1.124  -0.086  0.00  0.00    +0.000 C 
ATOM      6  O2  UNL     1       1.241  -2.353   0.181  0.00  0.00    +0.000 OA
ATOM      7  N1  UNL     1       2.253  -0.194   0.013  0.00  0.00    +0.000 N 
ATOM      8  C11 UNL     1      -1.465  -0.600  -0.717  0.00  0.00    +0.000 C 
ATOM      9  O3  UNL     1      -1.995   0.678  -1.083  0.00  0.00    +0.000 OA
ATOM     10  C12 UNL     1      -0.891   1.592  -1.150  0.00  0.00    +0.000 C 
ATOM     11  C19 UNL     1      -1.998  -1.681  -1.623  0.00  0.00    +0.000 C 
ATOM     12  O4  UNL     1      -1.861  -1.706  -2.875  0.00  0.00    +0.000 OA
ATOM     13  C20 UNL     1      -2.720  -2.682  -0.851  0.00  0.00    +0.000 A 
ATOM     14  C21 UNL     1      -3.361  -3.843  -1.285  0.00  0.00    +0.000 A 
ATOM     15  C22 UNL     1      -4.003  -4.646  -0.327  0.00  0.00    +0.000 A 
ATOM     16  C23 UNL     1      -3.995  -4.275   1.033  0.00  0.00    +0.000 A 
ATOM     17  C24 UNL     1      -3.342  -3.100   1.445  0.00  0.00    +0.000 A 
ATOM     18  C25 UNL     1      -2.711  -2.321   0.474  0.00  0.00    +0.000 A 
ATOM     19  C26 UNL     1      -1.985  -1.068   0.624  0.00  0.00    +0.000 C 
ATOM     20  O5  UNL     1      -1.842  -0.457   1.716  0.00  0.00    +0.000 OA
ENDROOT
BRANCH   7  21
ATOM     21  C5  UNL     1       3.625  -0.480   0.337  0.00  0.00    +0.000 A 
ATOM     22  C6  UNL     1       4.668   0.183  -0.331  0.00  0.00    +0.000 A 
ATOM     23  C7  UNL     1       6.001  -0.100  -0.018  0.00  0.00    +0.000 A 
ATOM     24  C8  UNL     1       6.305  -1.046   0.965  0.00  0.00    +0.000 A 
ATOM     25  C9  UNL     1       5.274  -1.711   1.637  0.00  0.00    +0.000 A 
ATOM     26 CL1  UNL     1       5.656  -2.894   2.874  0.00  0.00    +0.000 Cl
ATOM     27  C10 UNL     1       3.939  -1.430   1.324  0.00  0.00    +0.000 A 
ENDBRANCH   7  21
BRANCH  10  28
ATOM     28  C13 UNL     1      -1.268   2.946  -0.598  0.00  0.00    +0.000 A 
ATOM     29  C14 UNL     1      -0.668   4.104  -1.121  0.00  0.00    +0.000 A 
ATOM     30  C15 UNL     1      -0.987   5.362  -0.601  0.00  0.00    +0.000 A 
ATOM     31  C16 UNL     1      -1.897   5.474   0.454  0.00  0.00    +0.000 A 
ATOM     32  C17 UNL     1      -2.483   4.327   0.996  0.00  0.00    +0.000 A 
ATOM     33  C18 UNL     1      -2.166   3.067   0.479  0.00  0.00    +0.000 A 
ENDBRANCH  10  28
TORSDOF 2
