REMARK  Name = CNP0604096_0.pdb
REMARK  7 active torsions:
REMARK  status: ('A' for Active; 'I' for Inactive)
REMARK    1  A    between atoms: C1_1  and  C2_2
REMARK    2  A    between atoms: C5_6  and  O2_7
REMARK    3  A    between atoms: C6_8  and  C7_9
REMARK    4  A    between atoms: C8_10  and  C9_11
REMARK    5  A    between atoms: C15_18  and  C16_19
REMARK    6  A    between atoms: C20_24  and  C21_25
REMARK    7  A    between atoms: C21_25  and  O4_27
REMARK                            x       y       z     vdW  Elec       q    Type
REMARK                         _______ _______ _______ _____ _____    ______ ____
ROOT
ATOM      1  C7  UNL     1      -1.081  -0.102   0.069  0.00  0.00    +0.000 A 
ATOM      2  C8  UNL     1      -1.088  -1.491   0.094  0.00  0.00    +0.000 A 
ATOM      3  N1  UNL     1       0.172  -1.933   0.289  0.00  0.00    +0.000 NA
ATOM      4  C15 UNL     1       0.914  -0.809   0.381  0.00  0.00    +0.000 A 
ATOM      5  N3  UNL     1       0.178   0.316   0.274  0.00  0.00    +0.000 N 
ATOM      6  H17 UNL     1       0.498   1.305   0.363  0.00  0.00    +0.000 HD
ENDROOT
BRANCH   4   7
ATOM      7  C16 UNL     1       2.364  -0.833   0.641  0.00  0.00    +0.000 A 
ATOM      8  C17 UNL     1       3.045  -1.848   1.305  0.00  0.00    +0.000 A 
ATOM      9  N2  UNL     1       4.362  -1.557   1.391  0.00  0.00    +0.000 N 
ATOM     10  C18 UNL     1       4.523  -0.374   0.776  0.00  0.00    +0.000 A 
ATOM     11  C19 UNL     1       5.720   0.315   0.587  0.00  0.00    +0.000 A 
ATOM     12  C20 UNL     1       5.688   1.531  -0.131  0.00  0.00    +0.000 A 
ATOM     13  C22 UNL     1       4.452   2.003  -0.648  0.00  0.00    +0.000 A 
ATOM     14  C23 UNL     1       3.262   1.283  -0.443  0.00  0.00    +0.000 A 
ATOM     15  C24 UNL     1       3.328   0.101   0.297  0.00  0.00    +0.000 A 
ATOM     16  H12 UNL     1       5.103  -2.143   1.837  0.00  0.00    +0.000 HD
BRANCH  12  17
ATOM     17  C21 UNL     1       6.935   2.294  -0.353  0.00  0.00    +0.000 C 
ATOM     18  O3  UNL     1       6.916   3.376  -1.000  0.00  0.00    +0.000 OA
BRANCH  17  19
ATOM     19  O4  UNL     1       8.144   1.824   0.154  0.00  0.00    +0.000 OA
ATOM     20  H14 UNL     1       9.004   2.339   0.009  0.00  0.00    +0.000 HD
ENDBRANCH  17  19
ENDBRANCH  12  17
ENDBRANCH   4   7
BRANCH   1  27
ATOM     21  C1  UNL     1      -3.374   3.913   1.501  0.00  0.00    +0.000 C 
ATOM     22  C2  UNL     1      -3.310   2.764   0.548  0.00  0.00    +0.000 A 
ATOM     23  C3  UNL     1      -4.281   2.620  -0.449  0.00  0.00    +0.000 A 
ATOM     24  C4  UNL     1      -4.186   1.545  -1.332  0.00  0.00    +0.000 A 
ATOM     25  O1  UNL     1      -5.044   1.407  -2.244  0.00  0.00    +0.000 OA
ATOM     26  C5  UNL     1      -3.131   0.632  -1.198  0.00  0.00    +0.000 A 
ATOM     27  C6  UNL     1      -2.209   0.822  -0.151  0.00  0.00    +0.000 A 
ATOM     28  O5  UNL     1      -2.327   1.874   0.656  0.00  0.00    +0.000 OA
BRANCH  26  29
ATOM     29  O2  UNL     1      -2.978  -0.428  -2.094  0.00  0.00    +0.000 OA
ATOM     30  H5  UNL     1      -3.626  -0.589  -2.855  0.00  0.00    +0.000 HD
ENDBRANCH  26  29
ENDBRANCH   1  27
BRANCH   2  31
ATOM     31  C9  UNL     1      -2.251  -2.403   0.027  0.00  0.00    +0.000 A 
ATOM     32  C10 UNL     1      -3.479  -2.062   0.622  0.00  0.00    +0.000 A 
ATOM     33  C11 UNL     1      -4.564  -2.942   0.554  0.00  0.00    +0.000 A 
ATOM     34  C12 UNL     1      -4.430  -4.171  -0.095  0.00  0.00    +0.000 A 
ATOM     35  C13 UNL     1      -3.207  -4.528  -0.670  0.00  0.00    +0.000 A 
ATOM     36  C14 UNL     1      -2.120  -3.651  -0.604  0.00  0.00    +0.000 A 
ENDBRANCH   2  31
TORSDOF 6
