REMARK  Name = CNP0008747_1.pdb
REMARK  9 active torsions:
REMARK  status: ('A' for Active; 'I' for Inactive)
REMARK    1  A    between atoms: C1_1  and  O1_2
REMARK    2  A    between atoms: O1_2  and  C2_3
REMARK    3  A    between atoms: C3_4  and  C4_5
REMARK    4  A    between atoms: C4_5  and  O2_6
REMARK    5  A    between atoms: C17_22  and  C18_23
REMARK    6  A    between atoms: C18_23  and  O6_24
REMARK    7  A    between atoms: C18_23  and  C19_25
REMARK    8  A    between atoms: C23_29  and  C24_30
REMARK    9  A    between atoms: C32_39  and  C33_40
REMARK                            x       y       z     vdW  Elec       q    Type
REMARK                         _______ _______ _______ _____ _____    ______ ____
ROOT
ATOM      1  C2  UNL     1       4.964  -1.672  -1.679  0.00  0.00    +0.000 C 
ATOM      2  C3  UNL     1       4.943  -2.881  -2.232  0.00  0.00    +0.000 C 
ATOM      3  C5  UNL     1       3.954  -3.661  -1.497  0.00  0.00    +0.000 C 
ATOM      4  O3  UNL     1       3.659  -4.865  -1.714  0.00  0.00    +0.000 OA
ATOM      5  O4  UNL     1       3.366  -2.885  -0.509  0.00  0.00    +0.000 OA
ATOM      6  C6  UNL     1       3.962  -1.632  -0.606  0.00  0.00    +0.000 C 
ATOM      7  C7  UNL     1       3.616  -0.571   0.131  0.00  0.00    +0.000 C 
ATOM      8  O5  UNL     1       4.133   0.690  -0.098  0.00  0.00    +0.000 OA
ATOM      9  C8  UNL     1       3.471   1.594   0.703  0.00  0.00    +0.000 C 
ATOM     10  C9  UNL     1       3.472   2.907   0.420  0.00  0.00    +0.000 C 
ATOM     11  C10 UNL     1       2.411   3.857   0.929  0.00  0.00    +0.000 C 
ATOM     12  C11 UNL     1       2.341   3.855   2.423  0.00  0.00    +0.000 C 
ATOM     13  C12 UNL     1       1.738   2.820   3.007  0.00  0.00    +0.000 C 
ATOM     14  C13 UNL     1       1.335   1.616   2.147  0.00  0.00    +0.000 C 
ATOM     15  C14 UNL     1       0.410   0.722   3.023  0.00  0.00    +0.000 C 
ATOM     16  C15 UNL     1      -0.946   1.405   3.282  0.00  0.00    +0.000 C 
ATOM     17  C16 UNL     1      -1.526   2.098   2.030  0.00  0.00    +0.000 C 
ATOM     18  C17 UNL     1      -0.774   1.683   0.748  0.00  0.00    +0.000 C 
ATOM     19  N1  UNL     1       0.669   2.046   0.863  0.00  0.00    +0.000 NA
ATOM     20  C30 UNL     1       1.024   3.424   0.410  0.00  0.00    +0.000 C 
ATOM     21  C31 UNL     1       2.672   0.888   1.781  0.00  0.00    +0.000 C 
ATOM     22  C32 UNL     1       2.564  -0.558   1.212  0.00  0.00    +0.000 C 
ATOM     23  C33 UNL     1       2.840  -1.621   2.290  0.00  0.00    +0.000 C 
ENDROOT
BRANCH   1  25
ATOM     24  C1  UNL     1       6.944  -0.271  -1.291  0.00  0.00    +0.000 C 
ATOM     25  O1  UNL     1       5.809  -0.632  -2.068  0.00  0.00    +0.000 OA
ENDBRANCH   1  25
BRANCH   2  26
ATOM     26  C4  UNL     1       5.827  -3.375  -3.340  0.00  0.00    +0.000 C 
BRANCH  26  27
ATOM     27  O2  UNL     1       5.055  -3.920  -4.376  0.00  0.00    +0.000 OA
ATOM     28  H6  UNL     1       4.574  -3.162  -4.799  0.00  0.00    +0.000 HD
ENDBRANCH  26  27
ENDBRANCH   2  26
BRANCH  18  29
ATOM     29  C18 UNL     1      -1.443   2.203  -0.570  0.00  0.00    +0.000 C 
BRANCH  29  30
ATOM     30  C19 UNL     1      -2.917   1.741  -0.795  0.00  0.00    +0.000 C 
ATOM     31  C20 UNL     1      -3.431   2.276  -2.119  0.00  0.00    +0.000 C 
ATOM     32  C21 UNL     1      -4.284   1.598  -2.903  0.00  0.00    +0.000 C 
ATOM     33  C22 UNL     1      -4.670   0.169  -2.634  0.00  0.00    +0.000 C 
ATOM     34  C23 UNL     1      -4.518  -0.211  -1.146  0.00  0.00    +0.000 C 
ATOM     35  C29 UNL     1      -3.113   0.210  -0.670  0.00  0.00    +0.000 C 
BRANCH  34  36
ATOM     36  C24 UNL     1      -4.756  -1.733  -0.934  0.00  0.00    +0.000 C 
ATOM     37  C25 UNL     1      -6.149  -2.192  -1.375  0.00  0.00    +0.000 C 
ATOM     38  C26 UNL     1      -6.533  -3.361  -0.469  0.00  0.00    +0.000 C 
ATOM     39  C27 UNL     1      -5.473  -3.446   0.623  0.00  0.00    +0.000 C 
ATOM     40  C28 UNL     1      -4.664  -2.163   0.529  0.00  0.00    +0.000 C 
ENDBRANCH  34  36
ENDBRANCH  29  30
BRANCH  29  41
ATOM     41  O6  UNL     1      -0.655   1.871  -1.689  0.00  0.00    +0.000 OA
ATOM     42  H19 UNL     1      -0.473   0.896  -1.659  0.00  0.00    +0.000 HD
ENDBRANCH  29  41
ENDBRANCH  18  29
TORSDOF 7
