REMARK  Name = CNP0131556_1.pdb
REMARK  13 active torsions:
REMARK  status: ('A' for Active; 'I' for Inactive)
REMARK    1  A    between atoms: C1_1  and  C2_2
REMARK    2  A    between atoms: C3_3  and  C4_4
REMARK    3  A    between atoms: C3_3  and  C5_5
REMARK    4  A    between atoms: C5_5  and  O2_7
REMARK    5  A    between atoms: O2_7  and  C6_8
REMARK    6  A    between atoms: C6_8  and  C7_9
REMARK    7  A    between atoms: C6_8  and  C8_10
REMARK    8  A    between atoms: C6_8  and  C9_11
REMARK    9  A    between atoms: C19_24  and  O6_25
REMARK   10  A    between atoms: O6_25  and  C20_26
REMARK   11  A    between atoms: C20_26  and  C21_28
REMARK   12  A    between atoms: C22_29  and  C23_30
REMARK   13  A    between atoms: C26_33  and  O8_34
REMARK                            x       y       z     vdW  Elec       q    Type
REMARK                         _______ _______ _______ _____ _____    ______ ____
ROOT
ATOM      1  C9  UNL     1       1.651   0.698   1.186  0.00  0.00    +0.000 C 
ATOM      2  O3  UNL     1       2.598   0.819   0.125  0.00  0.00    +0.000 OA
ATOM      3  C10 UNL     1       2.130   1.677  -0.843  0.00  0.00    +0.000 A 
ATOM      4  C11 UNL     1       2.824   2.098  -1.976  0.00  0.00    +0.000 A 
ATOM      5  C12 UNL     1       2.188   2.984  -2.861  0.00  0.00    +0.000 A 
ATOM      6  C13 UNL     1       0.875   3.428  -2.593  0.00  0.00    +0.000 A 
ATOM      7  C14 UNL     1       0.208   4.305  -3.453  0.00  0.00    +0.000 A 
ATOM      8  C15 UNL     1      -1.092   4.705  -3.149  0.00  0.00    +0.000 A 
ATOM      9  C16 UNL     1      -1.700   4.217  -1.986  0.00  0.00    +0.000 A 
ATOM     10  O4  UNL     1      -2.876   4.564  -1.699  0.00  0.00    +0.000 OA
ATOM     11  O5  UNL     1      -1.044   3.386  -1.181  0.00  0.00    +0.000 OA
ATOM     12  C17 UNL     1       0.195   2.977  -1.434  0.00  0.00    +0.000 A 
ATOM     13  C18 UNL     1       0.857   2.095  -0.573  0.00  0.00    +0.000 A 
ATOM     14  C19 UNL     1       0.358   1.423   0.666  0.00  0.00    +0.000 C 
ENDROOT
BRANCH   1  15
ATOM     15  C6  UNL     1       1.537  -0.779   1.692  0.00  0.00    +0.000 C 
ATOM     16  C7  UNL     1       1.130  -1.779   0.580  0.00  0.00    +0.000 C 
ATOM     17  C8  UNL     1       0.515  -0.861   2.841  0.00  0.00    +0.000 C 
BRANCH  15  18
ATOM     18  O2  UNL     1       2.795  -1.172   2.267  0.00  0.00    +0.000 OA
BRANCH  18  19
ATOM     19  C5  UNL     1       3.998  -1.423   1.584  0.00  0.00    +0.000 C 
ATOM     20  O1  UNL     1       4.025  -1.458   0.325  0.00  0.00    +0.000 OA
BRANCH  19  23
ATOM     21  C1  UNL     1       6.804  -1.088   0.499  0.00  0.00    +0.000 C 
ATOM     22  C2  UNL     1       6.476  -1.536   1.891  0.00  0.00    +0.000 C 
ATOM     23  C3  UNL     1       5.226  -1.690   2.376  0.00  0.00    +0.000 C 
ATOM     24  C4  UNL     1       5.060  -2.045   3.830  0.00  0.00    +0.000 C 
ENDBRANCH  19  23
ENDBRANCH  18  19
ENDBRANCH  15  18
ENDBRANCH   1  15
BRANCH  14  25
ATOM     25  O6  UNL     1      -0.675   0.504   0.317  0.00  0.00    +0.000 OA
BRANCH  25  26
ATOM     26  C20 UNL     1      -2.040   0.808   0.356  0.00  0.00    +0.000 C 
ATOM     27  O7  UNL     1      -2.440   1.919   0.801  0.00  0.00    +0.000 OA
BRANCH  26  28
ATOM     28  C21 UNL     1      -3.000  -0.204  -0.113  0.00  0.00    +0.000 C 
ATOM     29  C22 UNL     1      -4.321   0.023  -0.147  0.00  0.00    +0.000 C 
BRANCH  29  30
ATOM     30  C23 UNL     1      -5.323  -0.977  -0.599  0.00  0.00    +0.000 A 
ATOM     31  C24 UNL     1      -6.669  -0.782  -0.246  0.00  0.00    +0.000 A 
ATOM     32  C25 UNL     1      -7.650  -1.692  -0.651  0.00  0.00    +0.000 A 
ATOM     33  C26 UNL     1      -7.303  -2.805  -1.422  0.00  0.00    +0.000 A 
ATOM     34  C27 UNL     1      -5.967  -3.002  -1.792  0.00  0.00    +0.000 A 
ATOM     35  C28 UNL     1      -4.983  -2.094  -1.390  0.00  0.00    +0.000 A 
BRANCH  33  36
ATOM     36  O8  UNL     1      -8.290  -3.705  -1.817  0.00  0.00    +0.000 OA
ATOM     37  H24 UNL     1      -8.070  -4.521  -2.376  0.00  0.00    +0.000 HD
ENDBRANCH  33  36
ENDBRANCH  29  30
ENDBRANCH  26  28
ENDBRANCH  25  26
ENDBRANCH  14  25
TORSDOF 9
