REMARK  Name = CNP0072747_2.pdb
REMARK  8 active torsions:
REMARK  status: ('A' for Active; 'I' for Inactive)
REMARK    1  A    between atoms: C1_1  and  O1_2
REMARK    2  A    between atoms: O1_2  and  C2_3
REMARK    3  A    between atoms: C16_19  and  O4_20
REMARK    4  A    between atoms: C17_21  and  C18_22
REMARK    5  A    between atoms: C20_24  and  C21_25
REMARK    6  A    between atoms: C23_27  and  C24_28
REMARK    7  A    between atoms: C26_30  and  C27_31
REMARK    8  A    between atoms: C29_33  and  C30_34
REMARK                            x       y       z     vdW  Elec       q    Type
REMARK                         _______ _______ _______ _____ _____    ______ ____
ROOT
ATOM      1  C2  UNL     1       4.711   1.117   0.590  0.00  0.00    +0.000 C 
ATOM      2  C3  UNL     1       4.422   2.629   0.882  0.00  0.00    +0.000 C 
ATOM      3  C4  UNL     1       2.989   3.040   0.700  0.00  0.00    +0.000 A 
ATOM      4  C5  UNL     1       2.462   3.193  -0.589  0.00  0.00    +0.000 A 
ATOM      5  C6  UNL     1       1.085   3.083  -0.786  0.00  0.00    +0.000 A 
ATOM      6  C7  UNL     1       0.263   2.751   0.297  0.00  0.00    +0.000 A 
ATOM      7  C8  UNL     1       0.749   2.867   1.599  0.00  0.00    +0.000 A 
ATOM      8  C9  UNL     1       2.118   3.023   1.805  0.00  0.00    +0.000 A 
ATOM      9  O2  UNL     1      -0.997   2.198   0.097  0.00  0.00    +0.000 OA
ATOM     10  C10 UNL     1      -1.199   1.014  -0.686  0.00  0.00    +0.000 C 
ATOM     11  C11 UNL     1      -0.618  -0.250   0.038  0.00  0.00    +0.000 C 
ATOM     12  C12 UNL     1       0.488  -1.092  -0.678  0.00  0.00    +0.000 C 
ATOM     13  C13 UNL     1       1.759  -0.288  -0.975  0.00  0.00    +0.000 C 
ATOM     14  O3  UNL     1       1.670   0.588  -1.822  0.00  0.00    +0.000 OA
ATOM     15  C14 UNL     1       3.151  -0.627  -0.424  0.00  0.00    +0.000 C 
ATOM     16  C15 UNL     1       3.261  -2.149  -0.256  0.00  0.00    +0.000 C 
ATOM     17  C16 UNL     1       2.133  -2.670   0.653  0.00  0.00    +0.000 C 
ATOM     18  C17 UNL     1       0.712  -2.526   0.017  0.00  0.00    +0.000 C 
ATOM     19  C18 UNL     1       0.488  -3.629  -1.050  0.00  0.00    +0.000 C 
ATOM     20  C19 UNL     1      -0.290  -2.820   1.153  0.00  0.00    +0.000 C 
ATOM     21  C20 UNL     1      -1.485  -2.208   1.284  0.00  0.00    +0.000 C 
ATOM     22  C21 UNL     1      -2.394  -2.632   2.408  0.00  0.00    +0.000 C 
ATOM     23  C22 UNL     1      -1.837  -1.171   0.245  0.00  0.00    +0.000 C 
ATOM     24  C23 UNL     1      -3.049  -0.214   0.373  0.00  0.00    +0.000 C 
ATOM     25  C24 UNL     1      -3.063   0.502   1.769  0.00  0.00    +0.000 C 
ATOM     26  C25 UNL     1      -4.425  -0.882   0.057  0.00  0.00    +0.000 C 
ATOM     27  C26 UNL     1      -5.472   0.074  -0.603  0.00  0.00    +0.000 C 
ATOM     28  C27 UNL     1      -5.770  -0.324  -2.058  0.00  0.00    +0.000 C 
ATOM     29  C28 UNL     1      -5.119   1.582  -0.485  0.00  0.00    +0.000 C 
ATOM     30  C29 UNL     1      -3.668   1.961  -0.901  0.00  0.00    +0.000 C 
ATOM     31  C30 UNL     1      -3.624   2.566  -2.312  0.00  0.00    +0.000 C 
ATOM     32  C31 UNL     1      -2.710   0.743  -0.790  0.00  0.00    +0.000 C 
ATOM     33  C32 UNL     1       3.519   0.132   0.897  0.00  0.00    +0.000 C 
ATOM     34  C33 UNL     1       4.204  -0.121  -1.360  0.00  0.00    +0.000 C 
ATOM     35  O5  UNL     1       4.371  -0.556  -2.532  0.00  0.00    +0.000 OA
ATOM     36  N1  UNL     1       4.979   0.939  -0.835  0.00  0.00    +0.000 N 
ATOM     37  H43 UNL     1       5.726   1.439  -1.368  0.00  0.00    +0.000 HD
ENDROOT
BRANCH   1  39
ATOM     38  C1  UNL     1       6.641  -0.268   0.886  0.00  0.00    +0.000 C 
ATOM     39  O1  UNL     1       5.845   0.782   1.396  0.00  0.00    +0.000 OA
ENDBRANCH   1  39
BRANCH  17  40
ATOM     40  O4  UNL     1       2.394  -3.994   1.065  0.00  0.00    +0.000 OA
ATOM     41  H16 UNL     1       2.714  -4.510   0.280  0.00  0.00    +0.000 HD
ENDBRANCH  17  40
TORSDOF 2
