REMARK  Name = CNP0599196_0.pdb
REMARK  4 active torsions:
REMARK  status: ('A' for Active; 'I' for Inactive)
REMARK    1  A    between atoms: C1_1  and  C2_2
REMARK    2  A    between atoms: C4_4  and  C5_5
REMARK    3  A    between atoms: C7_7  and  N1_8
REMARK    4  A    between atoms: C11_15  and  C12_16
REMARK                            x       y       z     vdW  Elec       q    Type
REMARK                         _______ _______ _______ _____ _____    ______ ____
ROOT
ATOM      1  N1  UNL     1      -1.458   0.142   1.485  0.00  0.00    +0.000 N 
ATOM      2  C8  UNL     1      -1.815   0.470   2.840  0.00  0.00    +0.000 C 
ATOM      3  O1  UNL     1      -3.027   0.586   3.169  0.00  0.00    +0.000 OA
ATOM      4  N2  UNL     1      -0.802   0.636   3.833  0.00  0.00    +0.000 N 
ATOM      5  C9  UNL     1       0.586   0.577   3.495  0.00  0.00    +0.000 C 
ATOM      6  O2  UNL     1       1.445   0.730   4.405  0.00  0.00    +0.000 OA
ATOM      7  C10 UNL     1       0.999   0.361   2.089  0.00  0.00    +0.000 C 
ATOM      8  C11 UNL     1       2.302   0.487   1.749  0.00  0.00    +0.000 C 
ATOM      9  C20 UNL     1      -0.071  -0.021   1.127  0.00  0.00    +0.000 C 
ATOM     10  O3  UNL     1       0.226  -0.540   0.016  0.00  0.00    +0.000 OA
ATOM     11  H9  UNL     1      -1.080   0.823   4.822  0.00  0.00    +0.000 HD
ENDROOT
BRANCH   8  12
ATOM     12  C12 UNL     1       2.831   0.517   0.372  0.00  0.00    +0.000 A 
ATOM     13  C13 UNL     1       2.325   1.230  -0.715  0.00  0.00    +0.000 A 
ATOM     14  N3  UNL     1       3.158   1.131  -1.776  0.00  0.00    +0.000 N 
ATOM     15  C14 UNL     1       4.198   0.386  -1.362  0.00  0.00    +0.000 A 
ATOM     16  C15 UNL     1       5.330   0.035  -2.096  0.00  0.00    +0.000 A 
ATOM     17  C16 UNL     1       6.319  -0.732  -1.452  0.00  0.00    +0.000 A 
ATOM     18  C17 UNL     1       6.157  -1.122  -0.104  0.00  0.00    +0.000 A 
ATOM     19  C18 UNL     1       5.006  -0.749   0.613  0.00  0.00    +0.000 A 
ATOM     20  C19 UNL     1       4.041   0.006  -0.054  0.00  0.00    +0.000 A 
ATOM     21  H12 UNL     1       3.031   1.571  -2.714  0.00  0.00    +0.000 HD
ENDBRANCH   8  12
BRANCH   1  28
ATOM     22  C1  UNL     1      -3.854  -2.824  -1.720  0.00  0.00    +0.000 C 
ATOM     23  C2  UNL     1      -3.654  -1.477  -1.090  0.00  0.00    +0.000 A 
ATOM     24  C3  UNL     1      -4.501  -0.409  -1.422  0.00  0.00    +0.000 A 
ATOM     25  C4  UNL     1      -4.348   0.839  -0.799  0.00  0.00    +0.000 A 
ATOM     26  C5  UNL     1      -5.225   1.991  -1.193  0.00  0.00    +0.000 C 
ATOM     27  C6  UNL     1      -3.329   1.019   0.147  0.00  0.00    +0.000 A 
ATOM     28  C7  UNL     1      -2.487  -0.046   0.497  0.00  0.00    +0.000 A 
ATOM     29  C21 UNL     1      -2.662  -1.296  -0.115  0.00  0.00    +0.000 A 
ENDBRANCH   1  28
TORSDOF 2
