REMARK  Name = CNP0022627_1.pdb
REMARK  6 active torsions:
REMARK  status: ('A' for Active; 'I' for Inactive)
REMARK    1  A    between atoms: C1_2  and  O2_14
REMARK    2  A    between atoms: N1_3  and  C2_4
REMARK    3  A    between atoms: O2_14  and  C12_15
REMARK    4  A    between atoms: C17_22  and  N2_23
REMARK    5  A    between atoms: N2_23  and  S1_24
REMARK    6  A    between atoms: S1_24  and  C18_27
REMARK                            x       y       z     vdW  Elec       q    Type
REMARK                         _______ _______ _______ _____ _____    ______ ____
ROOT
ATOM      1  C12 UNL     1      -0.590  -2.106   0.642  0.00  0.00    +0.000 C 
ATOM      2  C13 UNL     1       0.473  -1.877   1.694  0.00  0.00    +0.000 C 
ATOM      3  O3  UNL     1       1.711  -1.681   1.052  0.00  0.00    +0.000 OA
ATOM      4  C14 UNL     1       1.449  -1.317  -0.290  0.00  0.00    +0.000 C 
ATOM      5  C15 UNL     1      -0.040  -1.368  -0.554  0.00  0.00    +0.000 C 
ATOM      6  O4  UNL     1      -0.559  -0.055  -0.639  0.00  0.00    +0.000 OA
ATOM      7  C16 UNL     1       0.487   0.841  -0.349  0.00  0.00    +0.000 C 
ATOM      8  C17 UNL     1       1.820   0.125  -0.534  0.00  0.00    +0.000 C 
ENDROOT
BRANCH   8   9
ATOM      9  N2  UNL     1       2.351   0.276  -1.901  0.00  0.00    +0.000 NA
ATOM     10  H17 UNL     1       1.573   0.368  -2.595  0.00  0.00    +0.000 HD
BRANCH   9  11
ATOM     11  S1  UNL     1       3.369   1.681  -2.030  0.00  0.00    +0.000 S 
ATOM     12  O5  UNL     1       3.744   1.891  -3.470  0.00  0.00    +0.000 OA
ATOM     13  O6  UNL     1       2.639   2.903  -1.544  0.00  0.00    +0.000 OA
BRANCH  11  14
ATOM     14  C18 UNL     1       4.835   1.433  -1.086  0.00  0.00    +0.000 A 
ATOM     15  C19 UNL     1       5.810   0.538  -1.545  0.00  0.00    +0.000 A 
ATOM     16  C20 UNL     1       6.966   0.305  -0.796  0.00  0.00    +0.000 A 
ATOM     17  C21 UNL     1       7.158   0.964   0.426  0.00  0.00    +0.000 A 
ATOM     18  C22 UNL     1       8.314   0.735   1.190  0.00  0.00    +0.000 A 
ATOM     19  C23 UNL     1       8.491   1.395   2.409  0.00  0.00    +0.000 A 
ATOM     20  C24 UNL     1       7.520   2.287   2.874  0.00  0.00    +0.000 A 
ATOM     21  C25 UNL     1       6.365   2.524   2.124  0.00  0.00    +0.000 A 
ATOM     22  C26 UNL     1       6.174   1.867   0.897  0.00  0.00    +0.000 A 
ATOM     23  C27 UNL     1       5.017   2.095   0.136  0.00  0.00    +0.000 A 
ENDBRANCH  11  14
ENDBRANCH   9  11
ENDBRANCH   8   9
BRANCH   1  24
ATOM     24  O2  UNL     1      -1.851  -1.594   1.075  0.00  0.00    +0.000 OA
BRANCH  24  26
ATOM     25  O1  UNL     1      -3.045  -2.479  -0.694  0.00  0.00    +0.000 OA
ATOM     26  C1  UNL     1      -3.040  -1.793   0.366  0.00  0.00    +0.000 C 
ATOM     27  N1  UNL     1      -4.247  -1.188   0.844  0.00  0.00    +0.000 N 
ATOM     28  H1  UNL     1      -4.170  -0.516   1.640  0.00  0.00    +0.000 HD
BRANCH  27  29
ATOM     29  C2  UNL     1      -5.540  -1.445   0.270  0.00  0.00    +0.000 A 
ATOM     30  C3  UNL     1      -5.938  -2.770   0.027  0.00  0.00    +0.000 A 
ATOM     31  C4  UNL     1      -7.208  -3.053  -0.474  0.00  0.00    +0.000 A 
ATOM     32  C5  UNL     1      -8.107  -2.021  -0.736  0.00  0.00    +0.000 A 
ATOM     33  C6  UNL     1      -7.739  -0.689  -0.502  0.00  0.00    +0.000 A 
ATOM     34  C7  UNL     1      -8.646   0.349  -0.770  0.00  0.00    +0.000 A 
ATOM     35  C8  UNL     1      -8.279   1.678  -0.551  0.00  0.00    +0.000 A 
ATOM     36  C9  UNL     1      -7.005   1.983  -0.071  0.00  0.00    +0.000 A 
ATOM     37  C10 UNL     1      -6.091   0.962   0.202  0.00  0.00    +0.000 A 
ATOM     38  C11 UNL     1      -6.445  -0.388   0.003  0.00  0.00    +0.000 A 
ENDBRANCH  27  29
ENDBRANCH  24  26
ENDBRANCH   1  24
TORSDOF 6
