REMARK  Name = CNP0131131_0.pdb
REMARK  4 active torsions:
REMARK  status: ('A' for Active; 'I' for Inactive)
REMARK    1  A    between atoms: C1_1  and  N1_2
REMARK    2  A    between atoms: N1_2  and  C2_3
REMARK    3  A    between atoms: C6_9  and  C7_10
REMARK    4  A    between atoms: C7_10  and  C8_12
REMARK                            x       y       z     vdW  Elec       q    Type
REMARK                         _______ _______ _______ _____ _____    ______ ____
ROOT
ATOM      1  C1  UNL     1      -1.505  -4.749   1.375  0.00  0.00    +0.000 C 
ATOM      2  N1  UNL     1      -2.433  -3.669   1.030  0.00  0.00    +0.000 N 
ATOM      3  C2  UNL     1      -3.878  -3.911   0.991  0.00  0.00    +0.000 C 
ATOM      4  C3  UNL     1      -1.932  -2.353   0.727  0.00  0.00    +0.000 A 
ATOM      5  N2  UNL     1      -2.749  -1.315   0.397  0.00  0.00    +0.000 NA
ATOM      6  C4  UNL     1      -1.874  -0.316   0.194  0.00  0.00    +0.000 A 
ATOM      7  C5  UNL     1      -0.588  -0.735   0.396  0.00  0.00    +0.000 A 
ATOM      8  N3  UNL     1      -0.610  -2.034   0.730  0.00  0.00    +0.000 N 
ATOM      9  C6  UNL     1       0.514   0.140   0.212  0.00  0.00    +0.000 A 
ATOM     10  N5  UNL     1       0.248   1.435  -0.174  0.00  0.00    +0.000 NA
ATOM     11  C16 UNL     1      -1.041   1.840  -0.373  0.00  0.00    +0.000 A 
ATOM     12  C17 UNL     1      -2.113   0.989  -0.195  0.00  0.00    +0.000 A 
ATOM     13  C18 UNL     1      -3.239   1.721  -0.486  0.00  0.00    +0.000 A 
ATOM     14  C19 UNL     1      -4.592   1.394  -0.485  0.00  0.00    +0.000 A 
ATOM     15  C20 UNL     1      -5.506   2.402  -0.843  0.00  0.00    +0.000 A 
ATOM     16  C21 UNL     1      -5.051   3.695  -1.189  0.00  0.00    +0.000 A 
ATOM     17  C22 UNL     1      -3.676   3.997  -1.182  0.00  0.00    +0.000 A 
ATOM     18  C23 UNL     1      -2.787   2.985  -0.824  0.00  0.00    +0.000 A 
ATOM     19  N6  UNL     1      -1.437   3.071  -0.758  0.00  0.00    +0.000 N 
ATOM     20  H7  UNL     1       0.199  -2.663   0.925  0.00  0.00    +0.000 HD
ATOM     21  H18 UNL     1      -0.836   3.900  -0.962  0.00  0.00    +0.000 HD
ENDROOT
BRANCH   9  22
ATOM     22  C7  UNL     1       1.912  -0.279   0.454  0.00  0.00    +0.000 C 
ATOM     23  O1  UNL     1       2.151  -1.178   1.303  0.00  0.00    +0.000 OA
BRANCH  22  24
ATOM     24  C8  UNL     1       3.040   0.352  -0.266  0.00  0.00    +0.000 A 
ATOM     25  C9  UNL     1       2.980   1.029  -1.484  0.00  0.00    +0.000 A 
ATOM     26  N4  UNL     1       4.211   1.437  -1.865  0.00  0.00    +0.000 N 
ATOM     27  C10 UNL     1       5.054   1.022  -0.905  0.00  0.00    +0.000 A 
ATOM     28  C11 UNL     1       6.435   1.210  -0.861  0.00  0.00    +0.000 A 
ATOM     29  C12 UNL     1       7.134   0.694   0.244  0.00  0.00    +0.000 A 
ATOM     30  C13 UNL     1       6.446   0.011   1.270  0.00  0.00    +0.000 A 
ATOM     31  C14 UNL     1       5.052  -0.165   1.200  0.00  0.00    +0.000 A 
ATOM     32  C15 UNL     1       4.381   0.353   0.088  0.00  0.00    +0.000 A 
ATOM     33  H9  UNL     1       4.454   1.959  -2.735  0.00  0.00    +0.000 HD
ENDBRANCH  22  24
ENDBRANCH   9  22
TORSDOF 2
