REMARK  Name = CNP0012493_1.pdb
REMARK  9 active torsions:
REMARK  status: ('A' for Active; 'I' for Inactive)
REMARK    1  A    between atoms: C1_1  and  O1_2
REMARK    2  A    between atoms: O1_2  and  C2_3
REMARK    3  A    between atoms: C7_8  and  C8_9
REMARK    4  A    between atoms: N2_11  and  C9_12
REMARK    5  A    between atoms: C10_13  and  C11_14
REMARK    6  A    between atoms: C17_21  and  C18_22
REMARK    7  A    between atoms: C18_22  and  N4_23
REMARK    8  A    between atoms: N5_26  and  C20_27
REMARK    9  A    between atoms: C20_27  and  C21_28
REMARK                            x       y       z     vdW  Elec       q    Type
REMARK                         _______ _______ _______ _____ _____    ______ ____
ROOT
ATOM      1  C11 UNL     1      -0.746  -0.707  -2.197  0.00  0.00    +0.000 C 
ATOM      2  C12 UNL     1      -0.110   0.263  -3.237  0.00  0.00    +0.000 C 
ATOM      3  N3  UNL     1       1.373   0.090  -3.286  0.00  0.00    +0.000 NA
ATOM      4  C13 UNL     1       1.678  -1.353  -3.486  0.00  0.00    +0.000 C 
ATOM      5  C14 UNL     1       1.257  -2.184  -2.240  0.00  0.00    +0.000 C 
ATOM      6  C15 UNL     1       0.385  -1.297  -1.318  0.00  0.00    +0.000 C 
ATOM      7  C16 UNL     1       1.270  -0.145  -0.793  0.00  0.00    +0.000 C 
ATOM      8  C17 UNL     1       2.003   0.513  -2.002  0.00  0.00    +0.000 C 
ENDROOT
BRANCH   1  13
ATOM      9  C8  UNL     1      -3.795  -0.467  -0.176  0.00  0.00    +0.000 A 
ATOM     10  N1  UNL     1      -3.442   0.831  -0.202  0.00  0.00    +0.000 NA
ATOM     11  N2  UNL     1      -2.335   0.953  -0.919  0.00  0.00    +0.000 N 
ATOM     12  C9  UNL     1      -1.736   2.262  -1.143  0.00  0.00    +0.000 C 
ATOM     13  C10 UNL     1      -1.966  -0.271  -1.387  0.00  0.00    +0.000 A 
ATOM     14  C27 UNL     1      -2.880  -1.196  -0.911  0.00  0.00    +0.000 A 
BRANCH   9  20
ATOM     15  C2  UNL     1      -6.032  -0.148   0.962  0.00  0.00    +0.000 A 
ATOM     16  C3  UNL     1      -7.123  -0.689   1.673  0.00  0.00    +0.000 A 
ATOM     17  C4  UNL     1      -7.169  -2.051   1.971  0.00  0.00    +0.000 A 
ATOM     18  C5  UNL     1      -6.132  -2.889   1.571  0.00  0.00    +0.000 A 
ATOM     19  C6  UNL     1      -5.043  -2.371   0.870  0.00  0.00    +0.000 A 
ATOM     20  C7  UNL     1      -4.975  -0.999   0.557  0.00  0.00    +0.000 A 
BRANCH  15  22
ATOM     21  C1  UNL     1      -6.973   2.176   0.991  0.00  0.00    +0.000 C 
ATOM     22  O1  UNL     1      -5.979   1.219   0.639  0.00  0.00    +0.000 OA
ENDBRANCH  15  22
ENDBRANCH   9  20
ENDBRANCH   1  13
BRANCH   8  23
ATOM     23  C18 UNL     1       2.151   2.048  -1.912  0.00  0.00    +0.000 C 
BRANCH  23  24
ATOM     24  N4  UNL     1       2.656   2.455  -0.600  0.00  0.00    +0.000 N 
ATOM     25  C19 UNL     1       3.991   2.176  -0.161  0.00  0.00    +0.000 C 
ATOM     26  O2  UNL     1       4.835   1.691  -0.963  0.00  0.00    +0.000 OA
ATOM     27  N5  UNL     1       4.365   2.449   1.195  0.00  0.00    +0.000 N 
ATOM     28  H24 UNL     1       2.015   2.975   0.040  0.00  0.00    +0.000 HD
ATOM     29  H25 UNL     1       3.696   2.963   1.810  0.00  0.00    +0.000 HD
BRANCH  27  30
ATOM     30  C20 UNL     1       5.603   1.943   1.781  0.00  0.00    +0.000 C 
BRANCH  30  31
ATOM     31  C21 UNL     1       5.476   0.469   2.057  0.00  0.00    +0.000 A 
ATOM     32  C22 UNL     1       4.742   0.024   3.169  0.00  0.00    +0.000 A 
ATOM     33  C23 UNL     1       4.589  -1.345   3.411  0.00  0.00    +0.000 A 
ATOM     34  C24 UNL     1       5.160  -2.278   2.540  0.00  0.00    +0.000 A 
ATOM     35  C25 UNL     1       5.879  -1.843   1.422  0.00  0.00    +0.000 A 
ATOM     36  C26 UNL     1       6.036  -0.474   1.178  0.00  0.00    +0.000 A 
ENDBRANCH  30  31
ENDBRANCH  27  30
ENDBRANCH  23  24
ENDBRANCH   8  23
TORSDOF 7
