REMARK  Name = CNP0067074_2.pdb
REMARK  6 active torsions:
REMARK  status: ('A' for Active; 'I' for Inactive)
REMARK    1  A    between atoms: C1_1  and  O1_2
REMARK    2  A    between atoms: O1_2  and  C2_3
REMARK    3  A    between atoms: C5_6  and  C6_7
REMARK    4  A    between atoms: C6_7  and  N1_8
REMARK    5  A    between atoms: N1_8  and  C7_9
REMARK    6  A    between atoms: C15_18  and  C16_20
REMARK                            x       y       z     vdW  Elec       q    Type
REMARK                         _______ _______ _______ _____ _____    ______ ____
ROOT
ATOM      1  C7  UNL     1       2.807  -0.623   0.179  0.00  0.00    +0.000 A 
ATOM      2  C8  UNL     1       2.443  -1.890   0.650  0.00  0.00    +0.000 A 
ATOM      3  C9  UNL     1       1.205  -2.427   0.319  0.00  0.00    +0.000 A 
ATOM      4  C10 UNL     1       0.318  -1.706  -0.489  0.00  0.00    +0.000 A 
ATOM      5  C11 UNL     1      -1.042  -2.322  -0.788  0.00  0.00    +0.000 C 
ATOM      6  C12 UNL     1      -1.652  -1.705  -2.042  0.00  0.00    +0.000 C 
ATOM      7  C13 UNL     1      -1.669  -0.189  -1.842  0.00  0.00    +0.000 C 
ATOM      8  C14 UNL     1      -2.385   0.226  -0.522  0.00  0.00    +0.000 C 
ATOM      9  N2  UNL     1      -2.851  -0.935   0.256  0.00  0.00    +0.000 N 
ATOM     10  C15 UNL     1      -3.979  -0.784   1.134  0.00  0.00    +0.000 C 
ATOM     11  O2  UNL     1      -3.843  -1.052   2.360  0.00  0.00    +0.000 OA
ATOM     12  C26 UNL     1      -2.007  -2.132   0.405  0.00  0.00    +0.000 C 
ATOM     13  C27 UNL     1      -0.214   0.310  -1.860  0.00  0.00    +0.000 C 
ATOM     14  N3  UNL     1       0.662  -0.444  -0.934  0.00  0.00    +0.000 N 
ATOM     15  C28 UNL     1       1.888   0.091  -0.615  0.00  0.00    +0.000 A 
ATOM     16  O3  UNL     1       2.207   1.234  -1.042  0.00  0.00    +0.000 OA
ENDROOT
BRANCH  10  17
ATOM     17  C16 UNL     1      -5.300  -0.339   0.624  0.00  0.00    +0.000 A 
ATOM     18  C17 UNL     1      -5.623  -0.466  -0.738  0.00  0.00    +0.000 A 
ATOM     19  C18 UNL     1      -6.870  -0.053  -1.216  0.00  0.00    +0.000 A 
ATOM     20  C19 UNL     1      -7.820   0.484  -0.336  0.00  0.00    +0.000 A 
ATOM     21  C20 UNL     1      -9.073   0.907  -0.808  0.00  0.00    +0.000 A 
ATOM     22  C21 UNL     1     -10.012   1.443   0.078  0.00  0.00    +0.000 A 
ATOM     23  C22 UNL     1      -9.714   1.546   1.441  0.00  0.00    +0.000 A 
ATOM     24  C23 UNL     1      -8.470   1.128   1.923  0.00  0.00    +0.000 A 
ATOM     25  C24 UNL     1      -7.514   0.598   1.041  0.00  0.00    +0.000 A 
ATOM     26  C25 UNL     1      -6.259   0.182   1.511  0.00  0.00    +0.000 A 
ENDBRANCH  10  17
BRANCH   1  27
ATOM     27  N1  UNL     1       4.100  -0.055   0.477  0.00  0.00    +0.000 N 
ATOM     28  H8  UNL     1       4.263   0.955   0.264  0.00  0.00    +0.000 HD
BRANCH  27  29
ATOM     29  C6  UNL     1       5.199  -0.815   1.080  0.00  0.00    +0.000 C 
BRANCH  29  33
ATOM     30  C2  UNL     1       8.881   1.358   0.445  0.00  0.00    +0.000 A 
ATOM     31  C3  UNL     1       8.460   0.390  -0.474  0.00  0.00    +0.000 A 
ATOM     32  C4  UNL     1       7.277  -0.325  -0.262  0.00  0.00    +0.000 A 
ATOM     33  C5  UNL     1       6.505  -0.090   0.886  0.00  0.00    +0.000 A 
ATOM     34  C29 UNL     1       6.914   0.893   1.802  0.00  0.00    +0.000 A 
ATOM     35  C30 UNL     1       8.097   1.609   1.588  0.00  0.00    +0.000 A 
BRANCH  30  37
ATOM     36  C1  UNL     1      10.626   3.053   1.031  0.00  0.00    +0.000 C 
ATOM     37  O1  UNL     1      10.075   2.049   0.186  0.00  0.00    +0.000 OA
ENDBRANCH  30  37
ENDBRANCH  29  33
ENDBRANCH  27  29
ENDBRANCH   1  27
TORSDOF 5
