REMARK  Name = CNP0371766_3.pdb
REMARK  6 active torsions:
REMARK  status: ('A' for Active; 'I' for Inactive)
REMARK    1  A    between atoms: C1_1  and  O1_2
REMARK    2  A    between atoms: O1_2  and  C2_3
REMARK    3  A    between atoms: C9_12  and  C10_14
REMARK    4  A    between atoms: C10_14  and  N3_15
REMARK    5  A    between atoms: C19_24  and  C20_25
REMARK    6  A    between atoms: C20_25  and  N4_26
REMARK                            x       y       z     vdW  Elec       q    Type
REMARK                         _______ _______ _______ _____ _____    ______ ____
ROOT
ATOM      1  N3  UNL     1      -1.225  -2.745   1.113  0.00  0.00    +0.000 NA
ATOM      2  C11 UNL     1      -1.541  -4.167   0.782  0.00  0.00    +0.000 C 
ATOM      3  C12 UNL     1      -2.745  -4.354  -0.166  0.00  0.00    +0.000 C 
ATOM      4  C13 UNL     1      -2.749  -3.303  -1.238  0.00  0.00    +0.000 A 
ATOM      5  C14 UNL     1      -3.045  -3.621  -2.572  0.00  0.00    +0.000 A 
ATOM      6  C15 UNL     1      -3.050  -2.618  -3.544  0.00  0.00    +0.000 A 
ATOM      7  C16 UNL     1      -2.775  -1.298  -3.185  0.00  0.00    +0.000 A 
ATOM      8  C17 UNL     1      -2.500  -0.972  -1.854  0.00  0.00    +0.000 A 
ATOM      9  C18 UNL     1      -2.481  -1.975  -0.868  0.00  0.00    +0.000 A 
ATOM     10  C19 UNL     1      -2.196  -1.733   0.607  0.00  0.00    +0.000 C 
ENDROOT
BRANCH   1  11
ATOM     11  C10 UNL     1       0.216  -2.422   0.964  0.00  0.00    +0.000 C 
BRANCH  11  21
ATOM     12  C2  UNL     1       6.219   1.808   1.455  0.00  0.00    +0.000 A 
ATOM     13  C3  UNL     1       6.569   2.817   0.530  0.00  0.00    +0.000 A 
ATOM     14  C4  UNL     1       5.865   2.965  -0.678  0.00  0.00    +0.000 A 
ATOM     15  C5  UNL     1       4.808   2.096  -0.934  0.00  0.00    +0.000 A 
ATOM     16  N1  UNL     1       3.971   2.094  -2.086  0.00  0.00    +0.000 N 
ATOM     17  C6  UNL     1       2.831   1.270  -1.699  0.00  0.00    +0.000 C 
ATOM     18  C7  UNL     1       2.144   0.466  -2.790  0.00  0.00    +0.000 C 
ATOM     19  C8  UNL     1       0.970  -0.315  -2.139  0.00  0.00    +0.000 C 
ATOM     20  N2  UNL     1       1.331  -0.963  -0.847  0.00  0.00    +0.000 N 
ATOM     21  C9  UNL     1       0.639  -2.169  -0.466  0.00  0.00    +0.000 C 
ATOM     22  O2  UNL     1       0.430  -3.058  -1.334  0.00  0.00    +0.000 OA
ATOM     23  C29 UNL     1       2.231  -0.290   0.118  0.00  0.00    +0.000 C 
ATOM     24  C30 UNL     1       3.393   0.295  -0.665  0.00  0.00    +0.000 C 
ATOM     25  C31 UNL     1       4.432   1.137  -0.020  0.00  0.00    +0.000 A 
ATOM     26  C32 UNL     1       5.139   0.940   1.166  0.00  0.00    +0.000 A 
ATOM     27  H6  UNL     1       3.939   2.861  -2.795  0.00  0.00    +0.000 HD
BRANCH  12  29
ATOM     28  C1  UNL     1       6.766   0.707   3.630  0.00  0.00    +0.000 C 
ATOM     29  O1  UNL     1       6.974   1.699   2.631  0.00  0.00    +0.000 OA
ENDBRANCH  12  29
ENDBRANCH  11  21
ENDBRANCH   1  11
BRANCH  10  30
ATOM     30  C20 UNL     1      -1.814  -0.283   1.007  0.00  0.00    +0.000 C 
BRANCH  30  31
ATOM     31  N4  UNL     1      -2.966   0.620   0.935  0.00  0.00    +0.000 N 
ATOM     32  C21 UNL     1      -2.984   1.925   0.343  0.00  0.00    +0.000 C 
ATOM     33  O3  UNL     1      -2.094   2.366  -0.433  0.00  0.00    +0.000 OA
ATOM     34  C22 UNL     1      -4.147   2.673   0.808  0.00  0.00    +0.000 A 
ATOM     35  C23 UNL     1      -4.597   3.953   0.488  0.00  0.00    +0.000 A 
ATOM     36  C24 UNL     1      -5.763   4.420   1.120  0.00  0.00    +0.000 A 
ATOM     37  C25 UNL     1      -6.445   3.609   2.056  0.00  0.00    +0.000 A 
ATOM     38  C26 UNL     1      -5.967   2.324   2.366  0.00  0.00    +0.000 A 
ATOM     39  C27 UNL     1      -4.816   1.881   1.715  0.00  0.00    +0.000 A 
ATOM     40  C28 UNL     1      -4.087   0.625   1.827  0.00  0.00    +0.000 C 
ATOM     41  O4  UNL     1      -4.358  -0.304   2.635  0.00  0.00    +0.000 OA
ENDBRANCH  30  31
ENDBRANCH  10  30
TORSDOF 5
