REMARK  Name = CNP0185975_1.pdb
REMARK  5 active torsions:
REMARK  status: ('A' for Active; 'I' for Inactive)
REMARK    1  A    between atoms: C1_1  and  O1_2
REMARK    2  A    between atoms: O1_2  and  C2_3
REMARK    3  A    between atoms: C7_8  and  C8_9
REMARK    4  A    between atoms: N1_16  and  C14_17
REMARK    5  A    between atoms: C14_17  and  C15_18
REMARK                            x       y       z     vdW  Elec       q    Type
REMARK                         _______ _______ _______ _____ _____    ______ ____
ROOT
ATOM      1  C8  UNL     1      -2.052   0.027  -1.262  0.00  0.00    +0.000 C 
ATOM      2  C9  UNL     1      -2.026   1.299  -0.459  0.00  0.00    +0.000 A 
ATOM      3  C10 UNL     1      -0.875   2.023  -0.226  0.00  0.00    +0.000 A 
ATOM      4  C11 UNL     1       0.470   1.619  -0.721  0.00  0.00    +0.000 C 
ATOM      5  C12 UNL     1       0.301   0.766  -1.995  0.00  0.00    +0.000 C 
ATOM      6  C13 UNL     1       1.642   0.226  -2.411  0.00  0.00    +0.000 C 
ATOM      7  O2  UNL     1       2.524   1.027  -2.823  0.00  0.00    +0.000 OA
ATOM      8  N1  UNL     1       1.932  -1.178  -2.316  0.00  0.00    +0.000 N 
ATOM      9  C21 UNL     1       0.877  -2.173  -2.530  0.00  0.00    +0.000 C 
ATOM     10  C22 UNL     1      -0.495  -1.582  -2.427  0.00  0.00    +0.000 C 
ATOM     11  O3  UNL     1      -1.476  -2.242  -2.864  0.00  0.00    +0.000 OA
ATOM     12  N2  UNL     1      -0.701  -0.308  -1.786  0.00  0.00    +0.000 N 
ATOM     13  C23 UNL     1      -1.238   3.057   0.608  0.00  0.00    +0.000 A 
ATOM     14  C24 UNL     1      -0.491   4.073   1.200  0.00  0.00    +0.000 A 
ATOM     15  C25 UNL     1      -1.172   4.987   2.027  0.00  0.00    +0.000 A 
ATOM     16  C26 UNL     1      -2.563   4.860   2.243  0.00  0.00    +0.000 A 
ATOM     17  C27 UNL     1      -3.289   3.819   1.635  0.00  0.00    +0.000 A 
ATOM     18  C28 UNL     1      -2.591   2.930   0.818  0.00  0.00    +0.000 A 
ATOM     19  N3  UNL     1      -3.087   1.859   0.168  0.00  0.00    +0.000 N 
ATOM     20  H24 UNL     1      -4.074   1.515   0.170  0.00  0.00    +0.000 HD
ENDROOT
BRANCH   1  26
ATOM     21  C2  UNL     1      -1.882  -1.556   0.741  0.00  0.00    +0.000 A 
ATOM     22  C3  UNL     1      -2.422  -2.598   1.520  0.00  0.00    +0.000 A 
ATOM     23  C4  UNL     1      -3.655  -3.164   1.188  0.00  0.00    +0.000 A 
ATOM     24  C5  UNL     1      -4.361  -2.701   0.079  0.00  0.00    +0.000 A 
ATOM     25  C6  UNL     1      -3.838  -1.672  -0.705  0.00  0.00    +0.000 A 
ATOM     26  C7  UNL     1      -2.596  -1.093  -0.389  0.00  0.00    +0.000 A 
BRANCH  21  28
ATOM     27  C1  UNL     1       0.130  -1.276   2.205  0.00  0.00    +0.000 C 
ATOM     28  O1  UNL     1      -0.652  -0.958   1.060  0.00  0.00    +0.000 OA
ENDBRANCH  21  28
ENDBRANCH   1  26
BRANCH   8  29
ATOM     29  C14 UNL     1       3.319  -1.633  -2.156  0.00  0.00    +0.000 C 
BRANCH  29  30
ATOM     30  C15 UNL     1       3.832  -1.263  -0.784  0.00  0.00    +0.000 A 
ATOM     31  C16 UNL     1       3.290  -1.923   0.335  0.00  0.00    +0.000 A 
ATOM     32  C17 UNL     1       3.711  -1.598   1.626  0.00  0.00    +0.000 A 
ATOM     33  C18 UNL     1       4.676  -0.608   1.818  0.00  0.00    +0.000 A 
ATOM     34  C19 UNL     1       5.225   0.055   0.719  0.00  0.00    +0.000 A 
ATOM     35  C20 UNL     1       4.812  -0.263  -0.582  0.00  0.00    +0.000 A 
ATOM     36 CL1  UNL     1       5.565   0.604  -1.916  0.00  0.00    +0.000 Cl
ENDBRANCH  29  30
ENDBRANCH   8  29
TORSDOF 4
