REMARK  Name = CNP0124950_0.pdb
REMARK  5 active torsions:
REMARK  status: ('A' for Active; 'I' for Inactive)
REMARK    1  A    between atoms: C1_1  and  C2_2
REMARK    2  A    between atoms: C2_2  and  C3_4
REMARK    3  A    between atoms: C7_10  and  C8_11
REMARK    4  A    between atoms: C23_30  and  C24_31
REMARK    5  A    between atoms: C26_33  and  O7_34
REMARK                            x       y       z     vdW  Elec       q    Type
REMARK                         _______ _______ _______ _____ _____    ______ ____
ROOT
ATOM      1  C3  UNL     1      -2.846  -2.303  -0.071  0.00  0.00    +0.000 A 
ATOM      2  C4  UNL     1      -1.701  -2.172  -0.870  0.00  0.00    +0.000 A 
ATOM      3  O2  UNL     1      -1.652  -2.845  -2.098  0.00  0.00    +0.000 OA
ATOM      4  C5  UNL     1      -0.622  -2.650  -3.011  0.00  0.00    +0.000 C 
ATOM      5  O3  UNL     1      -0.546  -3.378  -4.036  0.00  0.00    +0.000 OA
ATOM      6  C6  UNL     1       0.324  -1.513  -2.823  0.00  0.00    +0.000 C 
ATOM      7  C7  UNL     1       0.640  -1.294  -1.329  0.00  0.00    +0.000 C 
ATOM      8  C19 UNL     1      -0.599  -1.411  -0.429  0.00  0.00    +0.000 A 
ATOM      9  C20 UNL     1      -0.596  -0.924   0.899  0.00  0.00    +0.000 A 
ATOM     10  O5  UNL     1       0.507  -0.352   1.374  0.00  0.00    +0.000 OA
ATOM     11  C21 UNL     1       0.601   0.158   2.591  0.00  0.00    +0.000 A 
ATOM     12  O6  UNL     1       1.680   0.690   2.961  0.00  0.00    +0.000 OA
ATOM     13  C22 UNL     1      -0.483   0.109   3.457  0.00  0.00    +0.000 A 
ATOM     14  C23 UNL     1      -1.676  -0.496   3.041  0.00  0.00    +0.000 A 
ATOM     15  C24 UNL     1      -2.811  -0.551   4.034  0.00  0.00    +0.000 C 
ATOM     16  C25 UNL     1      -1.750  -1.041   1.723  0.00  0.00    +0.000 A 
ATOM     17  C26 UNL     1      -2.900  -1.690   1.201  0.00  0.00    +0.000 A 
ENDROOT
BRANCH   7  18
ATOM     18  C8  UNL     1       1.352   0.046  -1.191  0.00  0.00    +0.000 A 
ATOM     19  C9  UNL     1       0.617   1.255  -1.317  0.00  0.00    +0.000 A 
ATOM     20  C10 UNL     1       1.267   2.488  -1.172  0.00  0.00    +0.000 A 
ATOM     21  C11 UNL     1       0.629   3.739  -1.261  0.00  0.00    +0.000 A 
ATOM     22  C12 UNL     1       1.387   4.922  -1.092  0.00  0.00    +0.000 A 
ATOM     23  C13 UNL     1       2.774   4.855  -0.837  0.00  0.00    +0.000 A 
ATOM     24  C14 UNL     1       3.372   3.595  -0.755  0.00  0.00    +0.000 A 
ATOM     25  C15 UNL     1       2.632   2.469  -0.919  0.00  0.00    +0.000 A 
ATOM     26  N1  UNL     1       3.337   1.342  -0.814  0.00  0.00    +0.000 N 
ATOM     27  C16 UNL     1       4.739   1.660  -0.547  0.00  0.00    +0.000 C 
ATOM     28  C17 UNL     1       4.793   3.215  -0.500  0.00  0.00    +0.000 C 
ATOM     29  C18 UNL     1       2.751   0.118  -0.945  0.00  0.00    +0.000 A 
ATOM     30  O4  UNL     1       3.448  -0.927  -0.844  0.00  0.00    +0.000 OA
ENDBRANCH   7  18
BRANCH   1  32
ATOM     31  C1  UNL     1      -4.466  -4.315   0.170  0.00  0.00    +0.000 C 
ATOM     32  C2  UNL     1      -3.976  -3.114  -0.578  0.00  0.00    +0.000 C 
ATOM     33  O1  UNL     1      -4.496  -2.830  -1.690  0.00  0.00    +0.000 OA
ENDBRANCH   1  32
BRANCH  17  34
ATOM     34  O7  UNL     1      -4.092  -1.709   1.931  0.00  0.00    +0.000 OA
ATOM     35  H19 UNL     1      -4.971  -2.044   1.561  0.00  0.00    +0.000 HD
ENDBRANCH  17  34
TORSDOF 3
