REMARK  Name = CNP0604857_3.pdb
REMARK  5 active torsions:
REMARK  status: ('A' for Active; 'I' for Inactive)
REMARK    1  A    between atoms: C12_14  and  C13_15
REMARK    2  A    between atoms: C17_19  and  N2_20
REMARK    3  A    between atoms: N4_28  and  C21_29
REMARK    4  A    between atoms: C21_29  and  C22_30
REMARK    5  A    between atoms: C22_30  and  C23_31
REMARK                            x       y       z     vdW  Elec       q    Type
REMARK                         _______ _______ _______ _____ _____    ______ ____
ROOT
ATOM      1  O1  UNL     1       1.901   1.346   0.071  0.00  0.00    +0.000 OA
ATOM      2  C1  UNL     1       1.078   0.394  -0.029  0.00  0.00    +0.000 C 
ATOM      3  C2  UNL     1      -0.329   0.707  -0.495  0.00  0.00    +0.000 C 
ATOM      4  C3  UNL     1      -0.928   1.847   0.355  0.00  0.00    +0.000 C 
ATOM      5  C4  UNL     1      -2.332   2.081  -0.084  0.00  0.00    +0.000 A 
ATOM      6  C5  UNL     1      -3.132   1.099  -0.628  0.00  0.00    +0.000 A 
ATOM      7  N1  UNL     1      -4.376   1.569  -0.880  0.00  0.00    +0.000 N 
ATOM      8  C6  UNL     1      -4.358   2.854  -0.475  0.00  0.00    +0.000 A 
ATOM      9  C7  UNL     1      -5.415   3.763  -0.502  0.00  0.00    +0.000 A 
ATOM     10  C8  UNL     1      -5.182   5.058  -0.002  0.00  0.00    +0.000 A 
ATOM     11  C9  UNL     1      -3.914   5.411   0.513  0.00  0.00    +0.000 A 
ATOM     12  C10 UNL     1      -2.865   4.473   0.532  0.00  0.00    +0.000 A 
ATOM     13  C11 UNL     1      -3.125   3.201   0.025  0.00  0.00    +0.000 A 
ATOM     14  C12 UNL     1      -2.674  -0.320  -0.821  0.00  0.00    +0.000 C 
ATOM     15  N3  UNL     1      -1.231  -0.472  -0.498  0.00  0.00    +0.000 N 
ATOM     16  C19 UNL     1      -0.657  -1.790  -0.481  0.00  0.00    +0.000 C 
ATOM     17  O4  UNL     1      -1.215  -2.741  -1.092  0.00  0.00    +0.000 OA
ATOM     18  C20 UNL     1       0.556  -2.053   0.343  0.00  0.00    +0.000 C 
ATOM     19  N4  UNL     1       1.518  -0.957   0.225  0.00  0.00    +0.000 N 
ATOM     20  H4  UNL     1      -5.185   1.039  -1.273  0.00  0.00    +0.000 HD
ENDROOT
BRANCH  14  21
ATOM     21  C13 UNL     1      -3.521  -1.215   0.062  0.00  0.00    +0.000 A 
ATOM     22  C14 UNL     1      -3.357  -1.198   1.458  0.00  0.00    +0.000 A 
ATOM     23  C15 UNL     1      -4.151  -2.008   2.270  0.00  0.00    +0.000 A 
ATOM     24  C16 UNL     1      -5.123  -2.835   1.703  0.00  0.00    +0.000 A 
ATOM     25  C17 UNL     1      -5.313  -2.859   0.309  0.00  0.00    +0.000 A 
ATOM     26  C18 UNL     1      -4.506  -2.042  -0.504  0.00  0.00    +0.000 A 
BRANCH  25  27
ATOM     27  N2  UNL     1      -6.318  -3.705  -0.280  0.00  0.00    +0.000 N 
ATOM     28  O2  UNL     1      -7.031  -4.440   0.436  0.00  0.00    +0.000 OA
ATOM     29  O3  UNL     1      -6.512  -3.718  -1.642  0.00  0.00    +0.000 OA
ENDBRANCH  25  27
ENDBRANCH  14  21
BRANCH  19  30
ATOM     30  C21 UNL     1       2.927  -1.222   0.546  0.00  0.00    +0.000 C 
BRANCH  30  31
ATOM     31  C22 UNL     1       3.770  -1.219  -0.731  0.00  0.00    +0.000 C 
BRANCH  31  32
ATOM     32  C23 UNL     1       5.219  -1.419  -0.406  0.00  0.00    +0.000 A 
ATOM     33  C24 UNL     1       5.906  -2.629  -0.374  0.00  0.00    +0.000 A 
ATOM     34  N5  UNL     1       7.183  -2.435   0.028  0.00  0.00    +0.000 N 
ATOM     35  C25 UNL     1       7.303  -1.116   0.262  0.00  0.00    +0.000 A 
ATOM     36  C26 UNL     1       8.434  -0.437   0.713  0.00  0.00    +0.000 A 
ATOM     37  C27 UNL     1       8.332   0.952   0.911  0.00  0.00    +0.000 A 
ATOM     38  C28 UNL     1       7.114   1.623   0.661  0.00  0.00    +0.000 A 
ATOM     39  C29 UNL     1       5.988   0.911   0.208  0.00  0.00    +0.000 A 
ATOM     40  C30 UNL     1       6.123  -0.464   0.015  0.00  0.00    +0.000 A 
ATOM     41  H21 UNL     1       7.919  -3.166   0.145  0.00  0.00    +0.000 HD
ENDBRANCH  31  32
ENDBRANCH  30  31
ENDBRANCH  19  30
TORSDOF 5
