REMARK  Name = CNP0130524_0.pdb
REMARK  1 active torsions:
REMARK  status: ('A' for Active; 'I' for Inactive)
REMARK    1  A    between atoms: N1_7  and  C5_8
REMARK                            x       y       z     vdW  Elec       q    Type
REMARK                         _______ _______ _______ _____ _____    ______ ____
ROOT
ATOM      1  O1  UNL     1      -1.724  -1.379  -3.424  0.00  0.00    +0.000 OA
ATOM      2  C1  UNL     1      -2.008  -1.038  -2.244  0.00  0.00    +0.000 A 
ATOM      3  O2  UNL     1      -1.069  -0.472  -1.501  0.00  0.00    +0.000 OA
ATOM      4  C2  UNL     1      -1.266  -0.076  -0.248  0.00  0.00    +0.000 A 
ATOM      5  C3  UNL     1      -0.199   0.513   0.458  0.00  0.00    +0.000 A 
ATOM      6  C4  UNL     1       1.148   0.699  -0.201  0.00  0.00    +0.000 C 
ATOM      7  N1  UNL     1       2.184   1.006   0.791  0.00  0.00    +0.000 N 
ATOM      8  C11 UNL     1       1.859   1.956   1.855  0.00  0.00    +0.000 C 
ATOM      9  O3  UNL     1       0.640   1.575   2.483  0.00  0.00    +0.000 OA
ATOM     10  C12 UNL     1      -0.400   0.966   1.773  0.00  0.00    +0.000 A 
ATOM     11  C13 UNL     1      -1.637   0.794   2.389  0.00  0.00    +0.000 A 
ATOM     12  C14 UNL     1      -2.695   0.196   1.703  0.00  0.00    +0.000 A 
ATOM     13  C15 UNL     1      -2.533  -0.246   0.370  0.00  0.00    +0.000 A 
ATOM     14  C16 UNL     1      -3.572  -0.852  -0.389  0.00  0.00    +0.000 A 
ATOM     15  C17 UNL     1      -4.875  -1.076   0.120  0.00  0.00    +0.000 A 
ATOM     16  C18 UNL     1      -5.859  -1.674  -0.669  0.00  0.00    +0.000 A 
ATOM     17  C19 UNL     1      -5.573  -2.063  -1.975  0.00  0.00    +0.000 A 
ATOM     18  C20 UNL     1      -4.301  -1.855  -2.503  0.00  0.00    +0.000 A 
ATOM     19  C21 UNL     1      -3.295  -1.253  -1.723  0.00  0.00    +0.000 A 
ENDROOT
BRANCH   7  20
ATOM     20  C5  UNL     1       3.560   0.720   0.496  0.00  0.00    +0.000 A 
ATOM     21  C6  UNL     1       4.156   1.251  -0.660  0.00  0.00    +0.000 A 
ATOM     22  C7  UNL     1       5.496   0.982  -0.950  0.00  0.00    +0.000 A 
ATOM     23  C8  UNL     1       6.250   0.180  -0.091  0.00  0.00    +0.000 A 
ATOM     24  C9  UNL     1       5.665  -0.359   1.058  0.00  0.00    +0.000 A 
ATOM     25  C10 UNL     1       4.322  -0.094   1.356  0.00  0.00    +0.000 A 
ATOM     26 CL1  UNL     1       3.605  -0.828   2.784  0.00  0.00    +0.000 Cl
ENDBRANCH   7  20
TORSDOF 1
