REMARK  Name = CNP0172172_2.pdb
REMARK  5 active torsions:
REMARK  status: ('A' for Active; 'I' for Inactive)
REMARK    1  A    between atoms: C1_1  and  O1_2
REMARK    2  A    between atoms: O1_2  and  C2_3
REMARK    3  A    between atoms: C5_6  and  C6_7
REMARK    4  A    between atoms: C18_20  and  C19_21
REMARK    5  A    between atoms: C19_21  and  N1_22
REMARK                            x       y       z     vdW  Elec       q    Type
REMARK                         _______ _______ _______ _____ _____    ______ ____
ROOT
ATOM      1  C2  UNL     1       0.077  -2.764  -0.461  0.00  0.00    +0.000 A 
ATOM      2  C3  UNL     1       1.323  -2.814  -1.117  0.00  0.00    +0.000 A 
ATOM      3  C4  UNL     1       2.183  -1.715  -1.090  0.00  0.00    +0.000 A 
ATOM      4  C5  UNL     1       1.830  -0.555  -0.389  0.00  0.00    +0.000 A 
ATOM      5  C17 UNL     1       0.593  -0.496   0.263  0.00  0.00    +0.000 A 
ATOM      6  C18 UNL     1      -0.291  -1.590   0.232  0.00  0.00    +0.000 A 
ENDROOT
BRANCH   4   7
ATOM      7  C6  UNL     1       2.683   0.652  -0.429  0.00  0.00    +0.000 C 
ATOM      8  C7  UNL     1       3.999   0.677  -0.126  0.00  0.00    +0.000 C 
ATOM      9  C8  UNL     1       4.741  -0.542   0.388  0.00  0.00    +0.000 C 
ATOM     10  C9  UNL     1       5.826  -0.150   1.402  0.00  0.00    +0.000 C 
ATOM     11  C10 UNL     1       6.737   0.923   0.858  0.00  0.00    +0.000 A 
ATOM     12  C11 UNL     1       8.088   0.960   1.241  0.00  0.00    +0.000 A 
ATOM     13  C12 UNL     1       8.916   1.997   0.805  0.00  0.00    +0.000 A 
ATOM     14  C13 UNL     1       8.400   3.016   0.004  0.00  0.00    +0.000 A 
ATOM     15  C14 UNL     1       7.053   3.000  -0.371  0.00  0.00    +0.000 A 
ATOM     16  C15 UNL     1       6.211   1.957   0.055  0.00  0.00    +0.000 A 
ATOM     17  C16 UNL     1       4.787   1.917  -0.347  0.00  0.00    +0.000 C 
ATOM     18  O2  UNL     1       4.254   2.928  -0.886  0.00  0.00    +0.000 OA
ENDBRANCH   4   7
BRANCH   1  20
ATOM     19  C1  UNL     1      -0.542  -5.106  -1.112  0.00  0.00    +0.000 C 
ATOM     20  O1  UNL     1      -0.813  -3.850  -0.491  0.00  0.00    +0.000 OA
ENDBRANCH   1  20
BRANCH   6  21
ATOM     21  C19 UNL     1      -1.607  -1.490   0.973  0.00  0.00    +0.000 C 
BRANCH  21  22
ATOM     22  N1  UNL     1      -2.322  -0.255   0.577  0.00  0.00    +0.000 NA
ATOM     23  C20 UNL     1      -3.017  -0.378  -0.725  0.00  0.00    +0.000 C 
ATOM     24  C21 UNL     1      -4.445  -1.005  -0.627  0.00  0.00    +0.000 C 
ATOM     25  C22 UNL     1      -4.898  -1.215   0.819  0.00  0.00    +0.000 C 
ATOM     26  C23 UNL     1      -4.660   0.096   1.550  0.00  0.00    +0.000 C 
ATOM     27  C24 UNL     1      -3.135   0.373   1.654  0.00  0.00    +0.000 C 
ATOM     28  C25 UNL     1      -5.376   1.235   0.835  0.00  0.00    +0.000 A 
ATOM     29  C26 UNL     1      -5.647   2.405   1.562  0.00  0.00    +0.000 A 
ATOM     30  C27 UNL     1      -6.235   3.493   0.928  0.00  0.00    +0.000 A 
ATOM     31  C28 UNL     1      -6.557   3.415  -0.423  0.00  0.00    +0.000 A 
ATOM     32  C29 UNL     1      -6.287   2.242  -1.133  0.00  0.00    +0.000 A 
ATOM     33  O3  UNL     1      -6.610   2.184  -2.352  0.00  0.00    +0.000 OA
ATOM     34  N2  UNL     1      -5.690   1.168  -0.512  0.00  0.00    +0.000 N 
ATOM     35  C30 UNL     1      -5.477  -0.076  -1.291  0.00  0.00    +0.000 C 
ENDBRANCH  21  22
ENDBRANCH   6  21
TORSDOF 4
