REMARK  Name = CNP0606043_1.pdb
REMARK  5 active torsions:
REMARK  status: ('A' for Active; 'I' for Inactive)
REMARK    1  A    between atoms: C1_2  and  C11_15
REMARK    2  A    between atoms: N1_3  and  C2_4
REMARK    3  A    between atoms: C2_4  and  C3_5
REMARK    4  A    between atoms: C3_5  and  C4_6
REMARK    5  A    between atoms: C15_19  and  N4_20
REMARK                            x       y       z     vdW  Elec       q    Type
REMARK                         _______ _______ _______ _____ _____    ______ ____
ROOT
ATOM      1  C11 UNL     1      -0.762  -0.039  -1.168  0.00  0.00    +0.000 C 
ATOM      2  C12 UNL     1      -1.031   0.917  -2.331  0.00  0.00    +0.000 C 
ATOM      3  C13 UNL     1      -2.403   0.727  -2.902  0.00  0.00    +0.000 A 
ATOM      4  C14 UNL     1      -2.635   1.117  -4.233  0.00  0.00    +0.000 A 
ATOM      5  C15 UNL     1      -3.917   1.042  -4.795  0.00  0.00    +0.000 A 
ATOM      6  C16 UNL     1      -4.973   0.575  -4.002  0.00  0.00    +0.000 A 
ATOM      7  C17 UNL     1      -4.755   0.196  -2.676  0.00  0.00    +0.000 A 
ATOM      8  C18 UNL     1      -3.467   0.267  -2.096  0.00  0.00    +0.000 A 
ATOM      9  N5  UNL     1      -3.226  -0.137  -0.714  0.00  0.00    +0.000 N 
ATOM     10  C19 UNL     1      -4.381  -0.569   0.107  0.00  0.00    +0.000 C 
ATOM     11  C20 UNL     1      -3.994  -1.092   1.499  0.00  0.00    +0.000 C 
ATOM     12  C21 UNL     1      -2.709  -1.890   1.364  0.00  0.00    +0.000 C 
ATOM     13  C22 UNL     1      -1.586  -0.894   1.109  0.00  0.00    +0.000 C 
ATOM     14  C23 UNL     1      -1.372  -0.096   2.408  0.00  0.00    +0.000 C 
ATOM     15  N6  UNL     1      -2.622   0.528   2.891  0.00  0.00    +0.000 N 
ATOM     16  C24 UNL     1      -3.857   0.044   2.504  0.00  0.00    +0.000 A 
ATOM     17  C25 UNL     1      -5.028   0.629   3.009  0.00  0.00    +0.000 A 
ATOM     18  C26 UNL     1      -4.943   1.680   3.914  0.00  0.00    +0.000 A 
ATOM     19  C27 UNL     1      -3.696   2.139   4.322  0.00  0.00    +0.000 A 
ATOM     20  C28 UNL     1      -2.539   1.547   3.811  0.00  0.00    +0.000 A 
ATOM     21  O4  UNL     1      -1.416   1.964   4.213  0.00  0.00    +0.000 OA
ATOM     22  C29 UNL     1      -1.883   0.074  -0.101  0.00  0.00    +0.000 C 
ENDROOT
BRANCH   1  24
ATOM     23  O1  UNL     1       0.790   1.396  -0.027  0.00  0.00    +0.000 OA
ATOM     24  C1  UNL     1       0.598   0.284  -0.591  0.00  0.00    +0.000 C 
ATOM     25  N1  UNL     1       1.686  -0.640  -0.741  0.00  0.00    +0.000 N 
ATOM     26  H1  UNL     1       1.515  -1.555  -1.214  0.00  0.00    +0.000 HD
BRANCH  25  27
ATOM     27  C2  UNL     1       3.021  -0.314  -0.242  0.00  0.00    +0.000 C 
BRANCH  27  28
ATOM     28  C3  UNL     1       4.034  -1.393  -0.632  0.00  0.00    +0.000 C 
BRANCH  28  29
ATOM     29  C4  UNL     1       5.397  -1.032  -0.129  0.00  0.00    +0.000 A 
ATOM     30  N2  UNL     1       6.148  -0.039  -0.678  0.00  0.00    +0.000 NA
ATOM     31  C5  UNL     1       7.237  -0.019   0.110  0.00  0.00    +0.000 A 
ATOM     32  C6  UNL     1       8.344   0.823   0.017  0.00  0.00    +0.000 A 
ATOM     33  C7  UNL     1       9.365   0.668   0.975  0.00  0.00    +0.000 A 
ATOM     34  C8  UNL     1       9.255  -0.311   1.990  0.00  0.00    +0.000 A 
ATOM     35  C9  UNL     1       8.120  -1.143   2.056  0.00  0.00    +0.000 A 
ATOM     36  C10 UNL     1       7.131  -0.962   1.090  0.00  0.00    +0.000 A 
ATOM     37  N3  UNL     1       5.968  -1.611   0.957  0.00  0.00    +0.000 N 
ATOM     38  H10 UNL     1       5.585  -2.377   1.556  0.00  0.00    +0.000 HD
ENDBRANCH  28  29
ENDBRANCH  27  28
ENDBRANCH  25  27
ENDBRANCH   1  24
BRANCH   5  39
ATOM     39  N4  UNL     1      -4.152   1.461  -6.153  0.00  0.00    +0.000 N 
ATOM     40  O2  UNL     1      -3.260   2.045  -6.801  0.00  0.00    +0.000 OA
ATOM     41  O3  UNL     1      -5.385   1.279  -6.737  0.00  0.00    +0.000 OA
ENDBRANCH   5  39
TORSDOF 5
