REMARK  Name = CNP0591400_1.pdb
REMARK  7 active torsions:
REMARK  status: ('A' for Active; 'I' for Inactive)
REMARK    1  A    between atoms: C1_1  and  O1_2
REMARK    2  A    between atoms: O1_2  and  C2_3
REMARK    3  A    between atoms: C7_9  and  C8_10
REMARK    4  A    between atoms: C8_10  and  C9_11
REMARK    5  A    between atoms: C9_11  and  N2_12
REMARK    6  A    between atoms: C10_13  and  C11_15
REMARK    7  A    between atoms: C15_19  and  N3_20
REMARK                            x       y       z     vdW  Elec       q    Type
REMARK                         _______ _______ _______ _____ _____    ______ ____
ROOT
ATOM      1  C11 UNL     1      -0.582   0.105  -0.023  0.00  0.00    +0.000 C 
ATOM      2  C12 UNL     1      -0.068  -0.120   1.402  0.00  0.00    +0.000 C 
ATOM      3  C13 UNL     1      -0.672   0.852   2.370  0.00  0.00    +0.000 A 
ATOM      4  C14 UNL     1       0.011   1.115   3.569  0.00  0.00    +0.000 A 
ATOM      5  C15 UNL     1      -0.545   1.952   4.548  0.00  0.00    +0.000 A 
ATOM      6  C16 UNL     1      -1.801   2.524   4.311  0.00  0.00    +0.000 A 
ATOM      7  C17 UNL     1      -2.492   2.260   3.129  0.00  0.00    +0.000 A 
ATOM      8  C18 UNL     1      -1.950   1.407   2.139  0.00  0.00    +0.000 A 
ATOM      9  N4  UNL     1      -2.681   1.099   0.912  0.00  0.00    +0.000 N 
ATOM     10  C19 UNL     1      -4.055   1.632   0.754  0.00  0.00    +0.000 C 
ATOM     11  C20 UNL     1      -4.682   1.339  -0.618  0.00  0.00    +0.000 C 
ATOM     12  C21 UNL     1      -3.596   1.475  -1.671  0.00  0.00    +0.000 C 
ATOM     13  C22 UNL     1      -2.667   0.278  -1.518  0.00  0.00    +0.000 C 
ATOM     14  C23 UNL     1      -3.445  -0.972  -1.969  0.00  0.00    +0.000 C 
ATOM     15  N5  UNL     1      -4.720  -1.125  -1.234  0.00  0.00    +0.000 N 
ATOM     16  C24 UNL     1      -5.339  -0.036  -0.651  0.00  0.00    +0.000 A 
ATOM     17  C25 UNL     1      -6.578  -0.194  -0.009  0.00  0.00    +0.000 A 
ATOM     18  C26 UNL     1      -7.182  -1.444   0.031  0.00  0.00    +0.000 A 
ATOM     19  C27 UNL     1      -6.559  -2.531  -0.571  0.00  0.00    +0.000 A 
ATOM     20  C28 UNL     1      -5.330  -2.357  -1.214  0.00  0.00    +0.000 A 
ATOM     21  O5  UNL     1      -4.793  -3.351  -1.776  0.00  0.00    +0.000 OA
ATOM     22  C29 UNL     1      -2.131   0.097  -0.044  0.00  0.00    +0.000 C 
ENDROOT
BRANCH   1  24
ATOM     23  N2  UNL     1       0.768  -0.599  -2.078  0.00  0.00    +0.000 N 
ATOM     24  C10 UNL     1      -0.005  -0.965  -0.925  0.00  0.00    +0.000 C 
ATOM     25  O2  UNL     1      -0.212  -2.180  -0.661  0.00  0.00    +0.000 OA
ATOM     26  H12 UNL     1       0.894   0.413  -2.305  0.00  0.00    +0.000 HD
BRANCH  23  27
ATOM     27  C9  UNL     1       1.416  -1.582  -2.947  0.00  0.00    +0.000 C 
BRANCH  27  28
ATOM     28  C8  UNL     1       2.933  -1.366  -2.970  0.00  0.00    +0.000 C 
BRANCH  28  35
ATOM     29  C2  UNL     1       6.651   0.623  -1.125  0.00  0.00    +0.000 A 
ATOM     30  C3  UNL     1       6.933   0.142   0.184  0.00  0.00    +0.000 A 
ATOM     31  C4  UNL     1       6.095  -0.809   0.796  0.00  0.00    +0.000 A 
ATOM     32  C5  UNL     1       4.985  -1.255   0.083  0.00  0.00    +0.000 A 
ATOM     33  N1  UNL     1       4.098  -2.192   0.462  0.00  0.00    +0.000 N 
ATOM     34  C6  UNL     1       3.237  -2.331  -0.571  0.00  0.00    +0.000 A 
ATOM     35  C7  UNL     1       3.565  -1.452  -1.604  0.00  0.00    +0.000 A 
ATOM     36  C30 UNL     1       4.700  -0.788  -1.174  0.00  0.00    +0.000 A 
ATOM     37  C31 UNL     1       5.514   0.151  -1.809  0.00  0.00    +0.000 A 
ATOM     38  H6  UNL     1       4.094  -2.733   1.355  0.00  0.00    +0.000 HD
BRANCH  29  40
ATOM     39  C1  UNL     1       8.673   2.090  -1.221  0.00  0.00    +0.000 C 
ATOM     40  O1  UNL     1       7.474   1.555  -1.773  0.00  0.00    +0.000 OA
ENDBRANCH  29  40
ENDBRANCH  28  35
ENDBRANCH  27  28
ENDBRANCH  23  27
ENDBRANCH   1  24
BRANCH   5  41
ATOM     41  N3  UNL     1       0.146   2.198   5.786  0.00  0.00    +0.000 N 
ATOM     42  O3  UNL     1       1.256   1.673   6.011  0.00  0.00    +0.000 OA
ATOM     43  O4  UNL     1      -0.429   2.976   6.765  0.00  0.00    +0.000 OA
ENDBRANCH   5  41
TORSDOF 6
