REMARK  Name = CNP0139822_1.pdb
REMARK  5 active torsions:
REMARK  status: ('A' for Active; 'I' for Inactive)
REMARK    1  A    between atoms: C3_4  and  C4_5
REMARK    2  A    between atoms: C4_5  and  C5_6
REMARK    3  A    between atoms: N3_27  and  C21_28
REMARK    4  A    between atoms: C21_28  and  C22_29
REMARK    5  A    between atoms: C22_29  and  C23_30
REMARK                            x       y       z     vdW  Elec       q    Type
REMARK                         _______ _______ _______ _____ _____    ______ ____
ROOT
ATOM      1  O1  UNL     1       1.225  -2.211   1.306  0.00  0.00    +0.000 OA
ATOM      2  C1  UNL     1       0.867  -1.055   0.955  0.00  0.00    +0.000 C 
ATOM      3  C2  UNL     1      -0.310  -0.327   1.543  0.00  0.00    +0.000 C 
ATOM      4  C3  UNL     1      -1.714  -0.876   1.195  0.00  0.00    +0.000 C 
ATOM      5  N1  UNL     1      -2.502   0.219   0.610  0.00  0.00    +0.000 NA
ATOM      6  C11 UNL     1      -1.568   1.265   0.174  0.00  0.00    +0.000 C 
ATOM      7  C12 UNL     1      -1.480   1.270  -1.340  0.00  0.00    +0.000 C 
ATOM      8  O2  UNL     1      -1.075   0.302  -2.036  0.00  0.00    +0.000 OA
ATOM      9  N2  UNL     1      -1.920   2.492  -1.920  0.00  0.00    +0.000 N 
ATOM     10  C13 UNL     1      -2.310   3.300  -0.826  0.00  0.00    +0.000 A 
ATOM     11  C14 UNL     1      -2.826   4.598  -0.892  0.00  0.00    +0.000 A 
ATOM     12 CL1  UNL     1      -3.049   5.415  -2.429  0.00  0.00    +0.000 Cl
ATOM     13  C15 UNL     1      -3.168   5.240   0.309  0.00  0.00    +0.000 A 
ATOM     14  C16 UNL     1      -2.993   4.584   1.542  0.00  0.00    +0.000 A 
ATOM     15  C17 UNL     1      -2.474   3.280   1.585  0.00  0.00    +0.000 A 
ATOM     16  C18 UNL     1      -2.134   2.653   0.382  0.00  0.00    +0.000 A 
ATOM     17  C19 UNL     1      -0.228   1.069   0.917  0.00  0.00    +0.000 C 
ATOM     18  C20 UNL     1       0.995   1.009   0.048  0.00  0.00    +0.000 C 
ATOM     19  O3  UNL     1       1.464   1.999  -0.574  0.00  0.00    +0.000 OA
ATOM     20  N3  UNL     1       1.601  -0.272   0.030  0.00  0.00    +0.000 N 
ATOM     21  H10 UNL     1      -3.135   0.590   1.358  0.00  0.00    +0.000 HD
ATOM     22  H11 UNL     1      -1.958   2.729  -2.936  0.00  0.00    +0.000 HD
ENDROOT
BRANCH   4  23
ATOM     23  C4  UNL     1      -1.732  -2.100   0.253  0.00  0.00    +0.000 C 
BRANCH  23  24
ATOM     24  C5  UNL     1      -3.142  -2.541  -0.049  0.00  0.00    +0.000 A 
ATOM     25  C6  UNL     1      -3.788  -2.107  -1.219  0.00  0.00    +0.000 A 
ATOM     26  C7  UNL     1      -5.108  -2.489  -1.478  0.00  0.00    +0.000 A 
ATOM     27  C8  UNL     1      -5.794  -3.300  -0.570  0.00  0.00    +0.000 A 
ATOM     28  C9  UNL     1      -5.162  -3.728   0.601  0.00  0.00    +0.000 A 
ATOM     29  C10 UNL     1      -3.842  -3.347   0.864  0.00  0.00    +0.000 A 
ENDBRANCH  23  24
ENDBRANCH   4  23
BRANCH  20  30
ATOM     30  C21 UNL     1       2.927  -0.584  -0.498  0.00  0.00    +0.000 C 
BRANCH  30  31
ATOM     31  C22 UNL     1       4.007  -0.200   0.516  0.00  0.00    +0.000 C 
BRANCH  31  32
ATOM     32  C23 UNL     1       5.375  -0.519  -0.021  0.00  0.00    +0.000 A 
ATOM     33  C24 UNL     1       6.074   0.428  -0.789  0.00  0.00    +0.000 A 
ATOM     34  C25 UNL     1       7.331   0.118  -1.316  0.00  0.00    +0.000 A 
ATOM     35  C26 UNL     1       7.895  -1.140  -1.088  0.00  0.00    +0.000 A 
ATOM     36  C27 UNL     1       7.201  -2.092  -0.337  0.00  0.00    +0.000 A 
ATOM     37  C28 UNL     1       5.942  -1.787   0.191  0.00  0.00    +0.000 A 
ENDBRANCH  31  32
ENDBRANCH  30  31
ENDBRANCH  20  30
TORSDOF 5
