REMARK  Name = CNP0120079_2.pdb
REMARK  10 active torsions:
REMARK  status: ('A' for Active; 'I' for Inactive)
REMARK    1  A    between atoms: C1_1  and  C2_2
REMARK    2  A    between atoms: C5_5  and  S1_6
REMARK    3  A    between atoms: S1_6  and  N1_9
REMARK    4  A    between atoms: N1_9  and  C6_10
REMARK    5  A    between atoms: C6_10  and  C7_11
REMARK    6  A    between atoms: C6_10  and  C19_27
REMARK    7  A    between atoms: C7_11  and  O4_13
REMARK    8  A    between atoms: O4_13  and  C8_14
REMARK    9  A    between atoms: C12_18  and  C13_19
REMARK   10  A    between atoms: C17_25  and  C18_26
REMARK                            x       y       z     vdW  Elec       q    Type
REMARK                         _______ _______ _______ _____ _____    ______ ____
ROOT
ATOM      1  C6  UNL     1       1.108   0.878   0.995  0.00  0.00    +0.000 C 
ENDROOT
BRANCH   1   2
ATOM      2  C19 UNL     1       1.510  -0.257   0.067  0.00  0.00    +0.000 A 
ATOM      3  C20 UNL     1       1.375  -1.604   0.459  0.00  0.00    +0.000 A 
ATOM      4  C21 UNL     1       1.769  -2.633  -0.401  0.00  0.00    +0.000 A 
ATOM      5  C22 UNL     1       2.286  -2.332  -1.664  0.00  0.00    +0.000 A 
ATOM      6  C23 UNL     1       2.390  -1.003  -2.078  0.00  0.00    +0.000 A 
ATOM      7  C24 UNL     1       1.994   0.030  -1.224  0.00  0.00    +0.000 A 
ENDBRANCH   1   2
BRANCH   1   8
ATOM      8  N1  UNL     1       1.803   0.826   2.297  0.00  0.00    +0.000 NA
ATOM      9  H6  UNL     1       1.869  -0.152   2.658  0.00  0.00    +0.000 HD
BRANCH   8  10
ATOM     10  S1  UNL     1       3.411   1.484   2.206  0.00  0.00    +0.000 S 
ATOM     11  O1  UNL     1       4.067   1.365   3.552  0.00  0.00    +0.000 OA
ATOM     12  O2  UNL     1       3.332   2.942   1.843  0.00  0.00    +0.000 OA
BRANCH  10  17
ATOM     13  C1  UNL     1       6.598  -1.589  -1.953  0.00  0.00    +0.000 C 
ATOM     14  C2  UNL     1       5.879  -0.804  -0.896  0.00  0.00    +0.000 A 
ATOM     15  C3  UNL     1       5.526   0.535  -1.125  0.00  0.00    +0.000 A 
ATOM     16  C4  UNL     1       4.800   1.248  -0.163  0.00  0.00    +0.000 A 
ATOM     17  C5  UNL     1       4.393   0.620   1.024  0.00  0.00    +0.000 A 
ATOM     18  C25 UNL     1       4.748  -0.717   1.255  0.00  0.00    +0.000 A 
ATOM     19  C26 UNL     1       5.483  -1.428   0.299  0.00  0.00    +0.000 A 
ENDBRANCH  10  17
ENDBRANCH   8  10
ENDBRANCH   1   8
BRANCH   1  20
ATOM     20  C7  UNL     1      -0.379   0.845   1.200  0.00  0.00    +0.000 C 
ATOM     21  O3  UNL     1      -0.876   0.257   2.205  0.00  0.00    +0.000 OA
BRANCH  20  22
ATOM     22  O4  UNL     1      -1.208   1.444   0.248  0.00  0.00    +0.000 OA
BRANCH  22  23
ATOM     23  C8  UNL     1      -2.599   1.289   0.220  0.00  0.00    +0.000 A 
ATOM     24  C9  UNL     1      -3.390   2.435   0.325  0.00  0.00    +0.000 A 
ATOM     25  C10 UNL     1      -4.780   2.347   0.321  0.00  0.00    +0.000 A 
ATOM     26  C11 UNL     1      -5.412   1.096   0.206  0.00  0.00    +0.000 A 
ATOM     27  C12 UNL     1      -6.819   0.957   0.204  0.00  0.00    +0.000 A 
ATOM     28  C13 UNL     1      -7.742   2.143   0.320  0.00  0.00    +0.000 C 
ATOM     29  C14 UNL     1      -7.367  -0.327   0.085  0.00  0.00    +0.000 A 
ATOM     30  C15 UNL     1      -6.518  -1.428  -0.028  0.00  0.00    +0.000 A 
ATOM     31  O5  UNL     1      -7.001  -2.585  -0.133  0.00  0.00    +0.000 OA
ATOM     32  O6  UNL     1      -5.200  -1.263  -0.029  0.00  0.00    +0.000 OA
ATOM     33  C16 UNL     1      -4.617  -0.071   0.078  0.00  0.00    +0.000 A 
ATOM     34  C17 UNL     1      -3.209   0.025   0.055  0.00  0.00    +0.000 A 
ATOM     35  C18 UNL     1      -2.377  -1.218  -0.150  0.00  0.00    +0.000 C 
ENDBRANCH  22  23
ENDBRANCH  20  22
ENDBRANCH   1  20
TORSDOF 7
