REMARK  Name = CNP0176716_3.pdb
REMARK  10 active torsions:
REMARK  status: ('A' for Active; 'I' for Inactive)
REMARK    1  A    between atoms: C1_1  and  C2_2
REMARK    2  A    between atoms: C2_2  and  O2_4
REMARK    3  A    between atoms: O2_4  and  C3_5
REMARK    4  A    between atoms: C8_10  and  C9_11
REMARK    5  A    between atoms: C13_16  and  C14_17
REMARK    6  A    between atoms: C13_16  and  C15_18
REMARK    7  A    between atoms: C18_21  and  O4_22
REMARK    8  A    between atoms: C19_23  and  C20_24
REMARK    9  A    between atoms: C23_28  and  O6_29
REMARK   10  A    between atoms: C26_34  and  C27_35
REMARK                            x       y       z     vdW  Elec       q    Type
REMARK                         _______ _______ _______ _____ _____    ______ ____
ROOT
ATOM      1  C3  UNL     1       3.624   0.360   0.294  0.00  0.00    +0.000 C 
ATOM      2  C4  UNL     1       3.039  -1.038   0.531  0.00  0.00    +0.000 A 
ATOM      3  C5  UNL     1       1.634  -1.258   0.653  0.00  0.00    +0.000 A 
ATOM      4  C6  UNL     1       0.634  -0.129   0.604  0.00  0.00    +0.000 C 
ATOM      5  C7  UNL     1      -0.747  -0.438   1.264  0.00  0.00    +0.000 C 
ATOM      6  C8  UNL     1      -1.825   0.749   1.079  0.00  0.00    +0.000 C 
ATOM      7  C9  UNL     1      -1.117   2.098   0.741  0.00  0.00    +0.000 C 
ATOM      8  C10 UNL     1      -2.588   1.026   2.363  0.00  0.00    +0.000 C 
ATOM      9  C11 UNL     1      -3.709   1.765   2.332  0.00  0.00    +0.000 C 
ATOM     10  C12 UNL     1      -4.307   2.207   1.044  0.00  0.00    +0.000 C 
ATOM     11  O3  UNL     1      -5.125   3.167   1.054  0.00  0.00    +0.000 OA
ATOM     12  C13 UNL     1      -4.010   1.471  -0.265  0.00  0.00    +0.000 C 
ATOM     13  C14 UNL     1      -3.592   2.457  -1.384  0.00  0.00    +0.000 C 
ATOM     14  C15 UNL     1      -5.338   0.808  -0.718  0.00  0.00    +0.000 C 
ATOM     15  C16 UNL     1      -2.927   0.361   0.020  0.00  0.00    +0.000 C 
ATOM     16  C17 UNL     1      -2.307  -0.362  -1.176  0.00  0.00    +0.000 C 
ATOM     17  C18 UNL     1      -1.765  -1.752  -0.744  0.00  0.00    +0.000 C 
ATOM     18  C19 UNL     1      -1.258  -1.834   0.754  0.00  0.00    +0.000 C 
ATOM     19  C20 UNL     1      -2.341  -2.391   1.718  0.00  0.00    +0.000 C 
ATOM     20  O5  UNL     1      -0.218  -2.819   0.831  0.00  0.00    +0.000 OA
ATOM     21  C21 UNL     1       1.150  -2.563   0.774  0.00  0.00    +0.000 A 
ATOM     22  C22 UNL     1       2.029  -3.639   0.852  0.00  0.00    +0.000 A 
ATOM     23  C23 UNL     1       3.407  -3.442   0.840  0.00  0.00    +0.000 A 
ATOM     24  C24 UNL     1       3.923  -2.127   0.754  0.00  0.00    +0.000 A 
ATOM     25  C25 UNL     1       5.361  -1.822   0.952  0.00  0.00    +0.000 C 
ATOM     26  O7  UNL     1       6.119  -2.605   1.580  0.00  0.00    +0.000 OA
ATOM     27  O8  UNL     1       5.859  -0.587   0.542  0.00  0.00    +0.000 OA
ATOM     28  C26 UNL     1       5.076   0.302  -0.247  0.00  0.00    +0.000 C 
ATOM     29  C27 UNL     1       5.142  -0.128  -1.719  0.00  0.00    +0.000 C 
ENDROOT
BRANCH  17  30
ATOM     30  O4  UNL     1      -0.735  -2.105  -1.636  0.00  0.00    +0.000 OA
ATOM     31  H23 UNL     1      -0.724  -3.097  -1.695  0.00  0.00    +0.000 HD
ENDBRANCH  17  30
BRANCH  23  32
ATOM     32  O6  UNL     1       4.221  -4.576   0.882  0.00  0.00    +0.000 OA
ATOM     33  H28 UNL     1       5.206  -4.565   0.653  0.00  0.00    +0.000 HD
ENDBRANCH  23  32
BRANCH   1  34
ATOM     34  O2  UNL     1       2.813   1.098  -0.623  0.00  0.00    +0.000 OA
BRANCH  34  36
ATOM     35  C1  UNL     1       1.904   3.168  -1.681  0.00  0.00    +0.000 C 
ATOM     36  C2  UNL     1       2.810   2.495  -0.707  0.00  0.00    +0.000 C 
ATOM     37  O1  UNL     1       3.556   3.190   0.033  0.00  0.00    +0.000 OA
ENDBRANCH  34  36
ENDBRANCH   1  34
TORSDOF 4
