REMARK  Name = CNP0112283_1.pdb
REMARK  7 active torsions:
REMARK  status: ('A' for Active; 'I' for Inactive)
REMARK    1  A    between atoms: C1_1  and  C2_2
REMARK    2  A    between atoms: N1_4  and  C3_5
REMARK    3  A    between atoms: C10_12  and  C11_13
REMARK    4  A    between atoms: N2_15  and  C12_16
REMARK    5  A    between atoms: C12_16  and  C13_17
REMARK    6  A    between atoms: C13_17  and  C14_18
REMARK    7  A    between atoms: C15_20  and  C16_21
REMARK                            x       y       z     vdW  Elec       q    Type
REMARK                         _______ _______ _______ _____ _____    ______ ____
ROOT
ATOM      1  C3  UNL     1      -3.617   3.020  -1.554  0.00  0.00    +0.000 A 
ATOM      2  C4  UNL     1      -4.563   2.079  -1.130  0.00  0.00    +0.000 A 
ATOM      3  C5  UNL     1      -4.220   0.730  -1.011  0.00  0.00    +0.000 A 
ATOM      4  C6  UNL     1      -2.924   0.282  -1.341  0.00  0.00    +0.000 A 
ATOM      5  C7  UNL     1      -1.951   1.251  -1.697  0.00  0.00    +0.000 A 
ATOM      6  C8  UNL     1      -2.315   2.598  -1.842  0.00  0.00    +0.000 A 
ATOM      7  C9  UNL     1      -0.515   0.852  -1.922  0.00  0.00    +0.000 C 
ATOM      8  C10 UNL     1      -0.159  -0.390  -1.092  0.00  0.00    +0.000 C 
ATOM      9  C22 UNL     1      -1.152  -1.524  -1.466  0.00  0.00    +0.000 C 
ATOM     10  C23 UNL     1      -0.841  -2.924  -0.850  0.00  0.00    +0.000 C 
ATOM     11  C24 UNL     1      -1.805  -3.950  -1.438  0.00  0.00    +0.000 C 
ATOM     12  C25 UNL     1      -3.223  -3.532  -1.052  0.00  0.00    +0.000 C 
ATOM     13  C26 UNL     1      -3.563  -2.154  -1.651  0.00  0.00    +0.000 C 
ATOM     14  N5  UNL     1      -2.566  -1.130  -1.276  0.00  0.00    +0.000 N 
ATOM     15  C27 UNL     1      -3.403  -3.550   0.485  0.00  0.00    +0.000 C 
ATOM     16  N6  UNL     1      -2.204  -3.150   1.260  0.00  0.00    +0.000 N 
ATOM     17  C28 UNL     1      -0.976  -2.970   0.658  0.00  0.00    +0.000 A 
ATOM     18  C29 UNL     1       0.180  -2.855   1.446  0.00  0.00    +0.000 A 
ATOM     19  C30 UNL     1       0.076  -2.822   2.831  0.00  0.00    +0.000 A 
ATOM     20  C31 UNL     1      -1.173  -2.932   3.428  0.00  0.00    +0.000 A 
ATOM     21  C32 UNL     1      -2.307  -3.116   2.631  0.00  0.00    +0.000 A 
ATOM     22  O4  UNL     1      -3.425  -3.275   3.195  0.00  0.00    +0.000 OA
ENDROOT
BRANCH   1  26
ATOM     23  C1  UNL     1      -5.353   6.477  -1.255  0.00  0.00    +0.000 C 
ATOM     24  C2  UNL     1      -4.863   5.117  -0.871  0.00  0.00    +0.000 C 
ATOM     25  O1  UNL     1      -5.200   4.631   0.244  0.00  0.00    +0.000 OA
ATOM     26  N1  UNL     1      -3.969   4.401  -1.735  0.00  0.00    +0.000 N 
ATOM     27  H4  UNL     1      -3.493   4.933  -2.497  0.00  0.00    +0.000 HD
ENDBRANCH   1  26
BRANCH   8  28
ATOM     28  C11 UNL     1      -0.113  -0.026   0.381  0.00  0.00    +0.000 C 
ATOM     29  O2  UNL     1      -1.176   0.235   1.008  0.00  0.00    +0.000 OA
ATOM     30  N2  UNL     1       1.150   0.063   1.055  0.00  0.00    +0.000 N 
ATOM     31  H11 UNL     1       1.999  -0.313   0.575  0.00  0.00    +0.000 HD
BRANCH  30  32
ATOM     32  C12 UNL     1       1.265   0.648   2.393  0.00  0.00    +0.000 C 
BRANCH  32  33
ATOM     33  C13 UNL     1       2.621   0.336   3.036  0.00  0.00    +0.000 C 
BRANCH  33  34
ATOM     34  C14 UNL     1       3.760   0.892   2.241  0.00  0.00    +0.000 A 
ATOM     35  N3  UNL     1       4.561   0.144   1.461  0.00  0.00    +0.000 NA
ATOM     36  C15 UNL     1       5.399   1.076   0.965  0.00  0.00    +0.000 A 
ATOM     37  N4  UNL     1       5.115   2.314   1.420  0.00  0.00    +0.000 NA
ATOM     38  O3  UNL     1       4.094   2.158   2.204  0.00  0.00    +0.000 OA
BRANCH  36  39
ATOM     39  C16 UNL     1       6.503   0.770   0.030  0.00  0.00    +0.000 A 
ATOM     40  C17 UNL     1       6.691  -0.542  -0.444  0.00  0.00    +0.000 A 
ATOM     41  C18 UNL     1       7.740  -0.834  -1.322  0.00  0.00    +0.000 A 
ATOM     42  C19 UNL     1       8.613   0.176  -1.731  0.00  0.00    +0.000 A 
ATOM     43  C20 UNL     1       8.436   1.482  -1.266  0.00  0.00    +0.000 A 
ATOM     44  C21 UNL     1       7.386   1.780  -0.390  0.00  0.00    +0.000 A 
ENDBRANCH  36  39
ENDBRANCH  33  34
ENDBRANCH  32  33
ENDBRANCH  30  32
ENDBRANCH   8  28
TORSDOF 6
