REMARK  Name = CNP0183427_0.pdb
REMARK  4 active torsions:
REMARK  status: ('A' for Active; 'I' for Inactive)
REMARK    1  A    between atoms: C1_1  and  N1_2
REMARK    2  A    between atoms: C3_4  and  C4_5
REMARK    3  A    between atoms: C12_14  and  C13_15
REMARK    4  A    between atoms: C16_18  and  O2_19
REMARK                            x       y       z     vdW  Elec       q    Type
REMARK                         _______ _______ _______ _____ _____    ______ ____
ROOT
ATOM      1  C4  UNL     1      -1.463   0.749   1.567  0.00  0.00    +0.000 C 
ATOM      2  C5  UNL     1      -0.786   0.903   0.425  0.00  0.00    +0.000 C 
ATOM      3  O1  UNL     1       0.600   1.065   0.379  0.00  0.00    +0.000 OA
ATOM      4  C6  UNL     1       0.960   1.200  -0.961  0.00  0.00    +0.000 A 
ATOM      5  C7  UNL     1      -0.137   1.144  -1.792  0.00  0.00    +0.000 A 
ATOM      6  C8  UNL     1      -0.020   1.241  -3.176  0.00  0.00    +0.000 A 
ATOM      7  C9  UNL     1       1.266   1.394  -3.720  0.00  0.00    +0.000 A 
ATOM      8  C10 UNL     1       2.399   1.452  -2.879  0.00  0.00    +0.000 A 
ATOM      9  C11 UNL     1       2.251   1.365  -1.473  0.00  0.00    +0.000 A 
ATOM     10  C12 UNL     1       3.461   1.351  -0.565  0.00  0.00    +0.000 C 
ATOM     11  C19 UNL     1       4.672   2.075  -1.194  0.00  0.00    +0.000 C 
ATOM     12  C20 UNL     1       4.806   1.786  -2.662  0.00  0.00    +0.000 C 
ATOM     13  O3  UNL     1       5.942   1.795  -3.204  0.00  0.00    +0.000 OA
ATOM     14  O4  UNL     1       3.669   1.585  -3.447  0.00  0.00    +0.000 OA
ATOM     15  C21 UNL     1      -1.303   0.965  -0.950  0.00  0.00    +0.000 C 
ATOM     16  O5  UNL     1      -2.504   0.952  -1.326  0.00  0.00    +0.000 OA
ENDROOT
BRANCH   1  20
ATOM     17  C1  UNL     1      -6.243   1.055   3.055  0.00  0.00    +0.000 C 
ATOM     18  N1  UNL     1      -5.048   0.642   2.325  0.00  0.00    +0.000 N 
ATOM     19  C2  UNL     1      -3.815   1.190   2.436  0.00  0.00    +0.000 A 
ATOM     20  C3  UNL     1      -2.912   0.502   1.634  0.00  0.00    +0.000 A 
ATOM     21  C22 UNL     1      -3.628  -0.533   1.057  0.00  0.00    +0.000 A 
ATOM     22  C23 UNL     1      -3.221  -1.597   0.250  0.00  0.00    +0.000 A 
ATOM     23  C24 UNL     1      -4.193  -2.533  -0.144  0.00  0.00    +0.000 A 
ATOM     24  C25 UNL     1      -5.531  -2.402   0.288  0.00  0.00    +0.000 A 
ATOM     25  C26 UNL     1      -5.908  -1.336   1.125  0.00  0.00    +0.000 A 
ATOM     26  C27 UNL     1      -4.925  -0.413   1.494  0.00  0.00    +0.000 A 
ENDBRANCH   1  20
BRANCH  10  27
ATOM     27  C13 UNL     1       3.812  -0.069  -0.153  0.00  0.00    +0.000 A 
ATOM     28  C14 UNL     1       4.034  -1.077  -1.111  0.00  0.00    +0.000 A 
ATOM     29  C15 UNL     1       4.364  -2.375  -0.711  0.00  0.00    +0.000 A 
ATOM     30  C16 UNL     1       4.482  -2.685   0.647  0.00  0.00    +0.000 A 
ATOM     31  C17 UNL     1       4.271  -1.688   1.607  0.00  0.00    +0.000 A 
ATOM     32  C18 UNL     1       3.941  -0.389   1.211  0.00  0.00    +0.000 A 
BRANCH  30  33
ATOM     33  O2  UNL     1       4.811  -3.983   1.030  0.00  0.00    +0.000 OA
ATOM     34  H11 UNL     1       4.904  -4.240   2.006  0.00  0.00    +0.000 HD
ENDBRANCH  30  33
ENDBRANCH  10  27
TORSDOF 3
