REMARK  Name = CNP0110878_1.pdb
REMARK  8 active torsions:
REMARK  status: ('A' for Active; 'I' for Inactive)
REMARK    1  A    between atoms: C2_2  and  C3_3
REMARK    2  A    between atoms: C2_2  and  C19_25
REMARK    3  A    between atoms: C3_3  and  O2_5
REMARK    4  A    between atoms: O2_5  and  C4_6
REMARK    5  A    between atoms: C7_10  and  C8_11
REMARK    6  A    between atoms: C17_22  and  C18_23
REMARK    7  A    between atoms: C17_22  and  O6_24
REMARK    8  A    between atoms: C22_28  and  C23_29
REMARK                            x       y       z     vdW  Elec       q    Type
REMARK                         _______ _______ _______ _____ _____    ______ ____
ROOT
ATOM      1  C4  UNL     1      -1.547  -0.332   1.001  0.00  0.00    +0.000 C 
ATOM      2  C5  UNL     1      -1.956   0.473  -0.187  0.00  0.00    +0.000 C 
ATOM      3  O3  UNL     1      -1.132   1.085  -0.919  0.00  0.00    +0.000 OA
ATOM      4  C6  UNL     1      -3.409   0.441  -0.385  0.00  0.00    +0.000 C 
ATOM      5  C7  UNL     1      -4.076   0.804  -1.521  0.00  0.00    +0.000 C 
ATOM      6  C8  UNL     1      -3.381   1.641  -2.565  0.00  0.00    +0.000 C 
ATOM      7  C9  UNL     1      -5.398   0.160  -1.932  0.00  0.00    +0.000 C 
ATOM      8  C10 UNL     1      -6.634   0.491  -1.070  0.00  0.00    +0.000 C 
ATOM      9  C11 UNL     1      -6.380   0.418   0.442  0.00  0.00    +0.000 C 
ATOM     10  C12 UNL     1      -7.583   0.108   1.285  0.00  0.00    +0.000 C 
ATOM     11  C13 UNL     1      -8.792   0.668   1.214  0.00  0.00    +0.000 C 
ATOM     12  C14 UNL     1      -7.148  -0.811   2.310  0.00  0.00    +0.000 C 
ATOM     13  O4  UNL     1      -7.842  -1.207   3.284  0.00  0.00    +0.000 OA
ATOM     14  O5  UNL     1      -5.839  -1.196   2.094  0.00  0.00    +0.000 OA
ATOM     15  C15 UNL     1      -5.386  -0.715   0.829  0.00  0.00    +0.000 C 
ATOM     16  C16 UNL     1      -3.962  -0.151   0.894  0.00  0.00    +0.000 C 
ATOM     17  C17 UNL     1      -2.844  -1.097   1.399  0.00  0.00    +0.000 C 
ATOM     18  C18 UNL     1      -2.930  -2.493   0.733  0.00  0.00    +0.000 C 
ENDROOT
BRANCH  17  19
ATOM     19  O6  UNL     1      -2.933  -1.234   2.798  0.00  0.00    +0.000 OA
ATOM     20  H19 UNL     1      -2.118  -1.720   3.102  0.00  0.00    +0.000 HD
ENDBRANCH  17  19
BRANCH   1  21
ATOM     21  O2  UNL     1      -0.476  -1.217   0.668  0.00  0.00    +0.000 OA
BRANCH  21  22
ATOM     22  C3  UNL     1       0.873  -0.915   0.889  0.00  0.00    +0.000 C 
ATOM     23  O1  UNL     1       1.198   0.131   1.518  0.00  0.00    +0.000 OA
BRANCH  22  25
ATOM     24  C1  UNL     1       1.657  -3.180   0.461  0.00  0.00    +0.000 C 
ATOM     25  C2  UNL     1       1.918  -1.870   0.455  0.00  0.00    +0.000 C 
BRANCH  25  26
ATOM     26  C19 UNL     1       3.340  -1.420   0.165  0.00  0.00    +0.000 C 
ATOM     27  C20 UNL     1       4.126  -1.265   1.479  0.00  0.00    +0.000 C 
ATOM     28  C21 UNL     1       5.571  -0.822   1.212  0.00  0.00    +0.000 C 
ATOM     29  C22 UNL     1       5.666   0.494   0.384  0.00  0.00    +0.000 C 
ATOM     30  C23 UNL     1       5.117   1.675   1.240  0.00  0.00    +0.000 C 
ATOM     31  C24 UNL     1       7.178   0.790   0.063  0.00  0.00    +0.000 C 
ATOM     32  C25 UNL     1       7.461   1.243  -1.385  0.00  0.00    +0.000 C 
ATOM     33  C26 UNL     1       6.381   2.182  -1.939  0.00  0.00    +0.000 C 
ATOM     34  C27 UNL     1       4.995   1.593  -1.787  0.00  0.00    +0.000 C 
ATOM     35  C28 UNL     1       3.964   2.224  -2.380  0.00  0.00    +0.000 C 
ATOM     36  C29 UNL     1       4.847   0.326  -0.943  0.00  0.00    +0.000 C 
ATOM     37  C30 UNL     1       3.389  -0.130  -0.684  0.00  0.00    +0.000 C 
ENDBRANCH  25  26
ENDBRANCH  22  25
ENDBRANCH  21  22
ENDBRANCH   1  21
TORSDOF 5
