REMARK  Name = CNP0071339_1.pdb
REMARK  6 active torsions:
REMARK  status: ('A' for Active; 'I' for Inactive)
REMARK    1  A    between atoms: C1_1  and  C2_2
REMARK    2  A    between atoms: C2_2  and  C3_3
REMARK    3  A    between atoms: C9_11  and  C10_12
REMARK    4  A    between atoms: C11_13  and  C12_14
REMARK    5  A    between atoms: C20_23  and  O4_24
REMARK    6  A    between atoms: C21_25  and  O5_26
REMARK                            x       y       z     vdW  Elec       q    Type
REMARK                         _______ _______ _______ _____ _____    ______ ____
ROOT
ATOM      1  C1  UNL     1      -5.032  -0.466  -1.989  0.00  0.00    +0.000 C 
ATOM      2  C2  UNL     1      -4.701   0.072  -0.586  0.00  0.00    +0.000 C 
ATOM      3  C3  UNL     1      -6.015   0.526   0.093  0.00  0.00    +0.000 C 
ATOM      4  O1  UNL     1      -4.124  -0.966   0.178  0.00  0.00    +0.000 OA
ATOM      5  C4  UNL     1      -3.306  -0.339   1.144  0.00  0.00    +0.000 C 
ATOM      6  C5  UNL     1      -2.050  -1.139   1.426  0.00  0.00    +0.000 C 
ATOM      7  C6  UNL     1      -1.686  -0.953   2.897  0.00  0.00    +0.000 C 
ATOM      8  O2  UNL     1      -2.415  -1.459   3.739  0.00  0.00    +0.000 OA
ATOM      9  C7  UNL     1      -0.463  -0.210   3.387  0.00  0.00    +0.000 C 
ATOM     10  C8  UNL     1       0.486   0.285   2.281  0.00  0.00    +0.000 C 
ATOM     11  C9  UNL     1       0.465  -0.600   1.004  0.00  0.00    +0.000 C 
ATOM     12  C10 UNL     1       0.876  -2.058   1.427  0.00  0.00    +0.000 C 
ATOM     13  C11 UNL     1       1.482  -0.058  -0.102  0.00  0.00    +0.000 C 
ATOM     14  C12 UNL     1       1.359   1.478  -0.392  0.00  0.00    +0.000 C 
ATOM     15  C13 UNL     1       2.953  -0.304   0.086  0.00  0.00    +0.000 A 
ATOM     16  C14 UNL     1       3.546  -0.585  -1.118  0.00  0.00    +0.000 A 
ATOM     17  C15 UNL     1       2.572  -0.703  -2.243  0.00  0.00    +0.000 C 
ATOM     18  C16 UNL     1       1.300  -0.905  -1.402  0.00  0.00    +0.000 C 
ATOM     19  C17 UNL     1      -0.090  -0.756  -2.007  0.00  0.00    +0.000 C 
ATOM     20  C18 UNL     1      -1.114  -1.273  -0.966  0.00  0.00    +0.000 C 
ATOM     21  C19 UNL     1      -1.022  -0.550   0.427  0.00  0.00    +0.000 C 
ATOM     22  O3  UNL     1      -1.418   0.796   0.217  0.00  0.00    +0.000 OA
ATOM     23  C20 UNL     1      -2.781   0.957   0.571  0.00  0.00    +0.000 C 
ATOM     24  C21 UNL     1      -3.648   1.199  -0.663  0.00  0.00    +0.000 C 
ATOM     25  C22 UNL     1       4.841  -0.139  -1.032  0.00  0.00    +0.000 A 
ATOM     26  C23 UNL     1       5.836  -0.009  -1.996  0.00  0.00    +0.000 A 
ATOM     27  C24 UNL     1       7.036   0.618  -1.614  0.00  0.00    +0.000 A 
ATOM     28  C25 UNL     1       7.192   1.131  -0.306  0.00  0.00    +0.000 A 
ATOM     29  C26 UNL     1       6.147   1.028   0.632  0.00  0.00    +0.000 A 
ATOM     30  C27 UNL     1       4.979   0.374   0.241  0.00  0.00    +0.000 A 
ATOM     31  N1  UNL     1       3.818   0.308   0.929  0.00  0.00    +0.000 N 
ATOM     32  H33 UNL     1       3.598   0.795   1.825  0.00  0.00    +0.000 HD
ENDROOT
BRANCH  23  33
ATOM     33  O4  UNL     1      -2.911   1.986   1.523  0.00  0.00    +0.000 OA
ATOM     34  H26 UNL     1      -2.386   2.759   1.187  0.00  0.00    +0.000 HD
ENDBRANCH  23  33
BRANCH  24  35
ATOM     35  O5  UNL     1      -4.226   2.482  -0.657  0.00  0.00    +0.000 OA
ATOM     36  H28 UNL     1      -4.596   2.628  -1.566  0.00  0.00    +0.000 HD
ENDBRANCH  24  35
TORSDOF 2
