MODEL 1
REMARK VINA RESULT:    -8.200      0.000      0.000
REMARK INTER + INTRA:         -12.131
REMARK INTER:                 -10.597
REMARK INTRA:                  -1.535
REMARK UNBOUND:                -1.535
REMARK  Name = CNP0606043_1.pdb
REMARK  5 active torsions:
REMARK  status: ('A' for Active; 'I' for Inactive)
REMARK    1  A    between atoms: C1_2  and  C11_15
REMARK    2  A    between atoms: N1_3  and  C2_4
REMARK    3  A    between atoms: C2_4  and  C3_5
REMARK    4  A    between atoms: C3_5  and  C4_6
REMARK    5  A    between atoms: C15_19  and  N4_20
REMARK                            x       y       z     vdW  Elec       q    Type
REMARK                         _______ _______ _______ _____ _____    ______ ____
ROOT
ATOM      1  C11 UNL     1      19.920  40.526  34.665  0.00  0.00    +0.000 C 
ATOM      2  C12 UNL     1      19.780  41.256  36.001  0.00  0.00    +0.000 C 
ATOM      3  C13 UNL     1      19.999  40.337  37.164  0.00  0.00    +0.000 A 
ATOM      4  C14 UNL     1      19.426  40.676  38.403  0.00  0.00    +0.000 A 
ATOM      5  C15 UNL     1      19.665  39.900  39.546  0.00  0.00    +0.000 A 
ATOM      6  C16 UNL     1      20.495  38.777  39.435  0.00  0.00    +0.000 A 
ATOM      7  C17 UNL     1      21.077  38.439  38.212  0.00  0.00    +0.000 A 
ATOM      8  C18 UNL     1      20.845  39.213  37.051  0.00  0.00    +0.000 A 
ATOM      9  N5  UNL     1      21.440  38.862  35.765  0.00  0.00    +0.000 N 
ATOM     10  C19 UNL     1      22.358  37.701  35.705  0.00  0.00    +0.000 C 
ATOM     11  C20 UNL     1      22.822  37.347  34.283  0.00  0.00    +0.000 C 
ATOM     12  C21 UNL     1      21.648  37.544  33.340  0.00  0.00    +0.000 C 
ATOM     13  C22 UNL     1      21.427  39.045  33.205  0.00  0.00    +0.000 C 
ATOM     14  C23 UNL     1      22.617  39.618  32.414  0.00  0.00    +0.000 C 
ATOM     15  N6  UNL     1      23.915  39.260  33.023  0.00  0.00    +0.000 N 
ATOM     16  C24 UNL     1      24.032  38.174  33.869  0.00  0.00    +0.000 A 
ATOM     17  C25 UNL     1      25.284  37.832  34.402  0.00  0.00    +0.000 A 
ATOM     18  C26 UNL     1      26.408  38.574  34.061  0.00  0.00    +0.000 A 
ATOM     19  C27 UNL     1      26.286  39.646  33.184  0.00  0.00    +0.000 A 
ATOM     20  C28 UNL     1      25.034  39.974  32.661  0.00  0.00    +0.000 A 
ATOM     21  O4  UNL     1      24.949  40.938  31.848  0.00  0.00    +0.000 OA
ATOM     22  C29 UNL     1      21.276  39.774  34.596  0.00  0.00    +0.000 C 
ENDROOT
BRANCH   1  24
ATOM     23  O1  UNL     1      18.859  41.414  32.702  0.00  0.00    +0.000 OA
ATOM     24  C1  UNL     1      19.783  41.540  33.551  0.00  0.00    +0.000 C 
ATOM     25  N1  UNL     1      20.737  42.604  33.419  0.00  0.00    +0.000 N 
ATOM     26  H1  UNL     1      21.500  42.694  34.126  0.00  0.00    +0.000 HD
BRANCH  25  27
ATOM     27  C2  UNL     1      20.651  43.554  32.312  0.00  0.00    +0.000 C 
BRANCH  27  28
ATOM     28  C3  UNL     1      21.925  43.528  31.463  0.00  0.00    +0.000 C 
BRANCH  28  29
ATOM     29  C4  UNL     1      23.037  44.233  32.175  0.00  0.00    +0.000 A 
ATOM     30  N2  UNL     1      23.207  45.583  32.126  0.00  0.00    +0.000 NA
ATOM     31  C5  UNL     1      24.258  45.780  32.941  0.00  0.00    +0.000 A 
ATOM     32  C6  UNL     1      24.864  46.989  33.278  0.00  0.00    +0.000 A 
ATOM     33  C7  UNL     1      25.950  46.949  34.173  0.00  0.00    +0.000 A 
ATOM     34  C8  UNL     1      26.398  45.716  34.704  0.00  0.00    +0.000 A 
ATOM     35  C9  UNL     1      25.760  44.513  34.344  0.00  0.00    +0.000 A 
ATOM     36  C10 UNL     1      24.690  44.592  33.455  0.00  0.00    +0.000 A 
ATOM     37  N3  UNL     1      23.924  43.600  32.983  0.00  0.00    +0.000 N 
ATOM     38  H10 UNL     1      23.988  42.579  33.196  0.00  0.00    +0.000 HD
ENDBRANCH  28  29
ENDBRANCH  27  28
ENDBRANCH  25  27
ENDBRANCH   1  24
BRANCH   5  39
ATOM     39  N4  UNL     1      19.092  40.263  40.816  0.00  0.00    +0.000 N 
ATOM     40  O2  UNL     1      19.210  39.511  41.805  0.00  0.00    +0.000 OA
ATOM     41  O3  UNL     1      18.350  41.416  40.944  0.00  0.00    +0.000 OA
ENDBRANCH   5  39
TORSDOF 5
ENDMDL
