
MODEL 3
REMARK VINA RESULT:    -7.878      4.832      8.352
REMARK INTER + INTRA:         -11.716
REMARK INTER:                 -10.427
REMARK INTRA:                  -1.289
REMARK UNBOUND:                -1.535
REMARK  Name = CNP0606043_1.pdb
REMARK  5 active torsions:
REMARK  status: ('A' for Active; 'I' for Inactive)
REMARK    1  A    between atoms: C1_2  and  C11_15
REMARK    2  A    between atoms: N1_3  and  C2_4
REMARK    3  A    between atoms: C2_4  and  C3_5
REMARK    4  A    between atoms: C3_5  and  C4_6
REMARK    5  A    between atoms: C15_19  and  N4_20
REMARK                            x       y       z     vdW  Elec       q    Type
REMARK                         _______ _______ _______ _____ _____    ______ ____
ROOT
ATOM      1  C11 UNL     1      20.937  36.219  37.592  0.00  0.00    +0.000 C 
ATOM      2  C12 UNL     1      20.001  36.612  38.736  0.00  0.00    +0.000 C 
ATOM      3  C13 UNL     1      19.901  38.099  38.887  0.00  0.00    +0.000 A 
ATOM      4  C14 UNL     1      19.531  38.623  40.138  0.00  0.00    +0.000 A 
ATOM      5  C15 UNL     1      19.339  39.999  40.318  0.00  0.00    +0.000 A 
ATOM      6  C16 UNL     1      19.516  40.852  39.221  0.00  0.00    +0.000 A 
ATOM      7  C17 UNL     1      19.872  40.341  37.971  0.00  0.00    +0.000 A 
ATOM      8  C18 UNL     1      20.068  38.954  37.776  0.00  0.00    +0.000 A 
ATOM      9  N5  UNL     1      20.451  38.410  36.476  0.00  0.00    +0.000 N 
ATOM     10  C19 UNL     1      20.570  39.340  35.329  0.00  0.00    +0.000 C 
ATOM     11  C20 UNL     1      21.101  38.682  34.046  0.00  0.00    +0.000 C 
ATOM     12  C21 UNL     1      22.176  37.683  34.438  0.00  0.00    +0.000 C 
ATOM     13  C22 UNL     1      21.474  36.503  35.097  0.00  0.00    +0.000 C 
ATOM     14  C23 UNL     1      20.685  35.763  34.002  0.00  0.00    +0.000 C 
ATOM     15  N6  UNL     1      19.772  36.664  33.268  0.00  0.00    +0.000 N 
ATOM     16  C24 UNL     1      19.980  38.030  33.248  0.00  0.00    +0.000 A 
ATOM     17  C25 UNL     1      19.121  38.858  32.510  0.00  0.00    +0.000 A 
ATOM     18  C26 UNL     1      18.075  38.302  31.784  0.00  0.00    +0.000 A 
ATOM     19  C27 UNL     1      17.893  36.924  31.785  0.00  0.00    +0.000 A 
ATOM     20  C28 UNL     1      18.756  36.111  32.523  0.00  0.00    +0.000 A 
ATOM     21  O4  UNL     1      18.587  34.859  32.491  0.00  0.00    +0.000 OA
ATOM     22  C29 UNL     1      20.522  36.934  36.279  0.00  0.00    +0.000 C 
ENDROOT
BRANCH   1  24
ATOM     23  O1  UNL     1      19.831  34.140  37.114  0.00  0.00    +0.000 OA
ATOM     24  C1  UNL     1      20.905  34.714  37.447  0.00  0.00    +0.000 C 
ATOM     25  N1  UNL     1      22.070  33.932  37.750  0.00  0.00    +0.000 N 
ATOM     26  H1  UNL     1      22.951  34.418  38.028  0.00  0.00    +0.000 HD
BRANCH  25  27
ATOM     27  C2  UNL     1      22.035  32.472  37.673  0.00  0.00    +0.000 C 
BRANCH  27  28
ATOM     28  C3  UNL     1      22.454  31.840  39.002  0.00  0.00    +0.000 C 
BRANCH  28  29
ATOM     29  C4  UNL     1      23.391  32.747  39.736  0.00  0.00    +0.000 A 
ATOM     30  N2  UNL     1      24.530  33.241  39.178  0.00  0.00    +0.000 NA
ATOM     31  C5  UNL     1      25.013  34.040  40.145  0.00  0.00    +0.000 A 
ATOM     32  C6  UNL     1      26.168  34.820  40.112  0.00  0.00    +0.000 A 
ATOM     33  C7  UNL     1      26.464  35.597  41.249  0.00  0.00    +0.000 A 
ATOM     34  C8  UNL     1      25.609  35.577  42.376  0.00  0.00    +0.000 A 
ATOM     35  C9  UNL     1      24.447  34.779  42.373  0.00  0.00    +0.000 A 
ATOM     36  C10 UNL     1      24.188  34.022  41.232  0.00  0.00    +0.000 A 
ATOM     37  N3  UNL     1      23.151  33.211  40.988  0.00  0.00    +0.000 N 
ATOM     38  H10 UNL     1      22.342  32.994  41.612  0.00  0.00    +0.000 HD
ENDBRANCH  28  29
ENDBRANCH  27  28
ENDBRANCH  25  27
ENDBRANCH   1  24
BRANCH   5  39
ATOM     39  N4  UNL     1      18.942  40.527  41.598  0.00  0.00    +0.000 N 
ATOM     40  O2  UNL     1      19.125  39.868  42.641  0.00  0.00    +0.000 OA
ATOM     41  O3  UNL     1      18.299  41.741  41.684  0.00  0.00    +0.000 OA
ENDBRANCH   5  39
TORSDOF 5
ENDMDL
