MODEL 1
REMARK VINA RESULT:    -7.178      0.000      0.000
REMARK INTER + INTRA:         -11.471
REMARK INTER:                  -9.066
REMARK INTRA:                  -2.404
REMARK UNBOUND:                -2.404
REMARK  Name = CNP0192238_3.pdb
REMARK  6 active torsions:
REMARK  status: ('A' for Active; 'I' for Inactive)
REMARK    1  A    between atoms: C1_1  and  C2_2
REMARK    2  A    between atoms: C8_11  and  C9_12
REMARK    3  A    between atoms: C9_12  and  C10_13
REMARK    4  A    between atoms: C13_16  and  O2_17
REMARK    5  A    between atoms: N3_23  and  C18_24
REMARK    6  A    between atoms: C18_24  and  C19_25
REMARK                            x       y       z     vdW  Elec       q    Type
REMARK                         _______ _______ _______ _____ _____    ______ ____
ROOT
ATOM      1  C1  UNL     1      27.690  36.333  38.960  0.00  0.00    +0.000 C 
ATOM      2  C2  UNL     1      26.616  35.819  39.870  0.00  0.00    +0.000 A 
ATOM      3  C3  UNL     1      26.828  35.743  41.266  0.00  0.00    +0.000 A 
ATOM      4  C4  UNL     1      25.813  35.280  42.115  0.00  0.00    +0.000 A 
ATOM      5  C5  UNL     1      24.608  34.870  41.549  0.00  0.00    +0.000 A 
ATOM      6  N1  UNL     1      23.447  34.485  42.258  0.00  0.00    +0.000 N 
ATOM      7  C6  UNL     1      22.455  34.289  41.259  0.00  0.00    +0.000 C 
ATOM      8  O1  UNL     1      21.265  33.984  41.536  0.00  0.00    +0.000 OA
ATOM      9  C7  UNL     1      22.989  34.480  39.852  0.00  0.00    +0.000 C 
ATOM     10  N2  UNL     1      22.286  35.547  39.136  0.00  0.00    +0.000 NA
ATOM     11  C8  UNL     1      21.180  34.902  38.425  0.00  0.00    +0.000 C 
ATOM     12  C16 UNL     1      21.603  33.439  38.135  0.00  0.00    +0.000 C 
ATOM     13  C17 UNL     1      22.118  33.180  36.747  0.00  0.00    +0.000 C 
ATOM     14  O3  UNL     1      21.388  33.162  35.719  0.00  0.00    +0.000 OA
ATOM     15  N3  UNL     1      23.501  32.885  36.708  0.00  0.00    +0.000 N 
ATOM     16  C26 UNL     1      23.936  32.890  38.055  0.00  0.00    +0.000 C 
ATOM     17  O6  UNL     1      25.110  32.581  38.393  0.00  0.00    +0.000 OA
ATOM     18  C27 UNL     1      22.830  33.181  39.033  0.00  0.00    +0.000 C 
ATOM     19  C28 UNL     1      24.400  34.902  40.184  0.00  0.00    +0.000 A 
ATOM     20  C29 UNL     1      25.379  35.414  39.328  0.00  0.00    +0.000 A 
ATOM     21  H6  UNL     1      23.322  34.436  43.294  0.00  0.00    +0.000 HD
ATOM     22  H7  UNL     1      21.910  36.262  39.804  0.00  0.00    +0.000 HD
ENDROOT
BRANCH  11  23
ATOM     23  C9  UNL     1      20.786  35.729  37.184  0.00  0.00    +0.000 C 
BRANCH  23  24
ATOM     24  C10 UNL     1      20.627  37.190  37.519  0.00  0.00    +0.000 A 
ATOM     25  C11 UNL     1      19.714  37.595  38.506  0.00  0.00    +0.000 A 
ATOM     26  C12 UNL     1      19.585  38.948  38.833  0.00  0.00    +0.000 A 
ATOM     27  C13 UNL     1      20.374  39.908  38.184  0.00  0.00    +0.000 A 
ATOM     28  C14 UNL     1      21.293  39.506  37.209  0.00  0.00    +0.000 A 
ATOM     29  C15 UNL     1      21.421  38.157  36.877  0.00  0.00    +0.000 A 
BRANCH  27  30
ATOM     30  O2  UNL     1      20.253  41.258  38.502  0.00  0.00    +0.000 OA
ATOM     31  H13 UNL     1      21.059  41.817  38.755  0.00  0.00    +0.000 HD
ENDBRANCH  27  30
ENDBRANCH  23  24
ENDBRANCH  11  23
BRANCH  15  32
ATOM     32  C18 UNL     1      24.361  32.961  35.528  0.00  0.00    +0.000 C 
BRANCH  32  33
ATOM     33  C19 UNL     1      25.065  34.289  35.488  0.00  0.00    +0.000 A 
ATOM     34  C20 UNL     1      24.325  35.495  35.379  0.00  0.00    +0.000 A 
ATOM     35  C21 UNL     1      24.986  36.732  35.276  0.00  0.00    +0.000 A 
ATOM     36  C22 UNL     1      26.377  36.726  35.263  0.00  0.00    +0.000 A 
ATOM     37  O4  UNL     1      27.241  37.796  35.139  0.00  0.00    +0.000 OA
ATOM     38  C23 UNL     1      28.582  37.287  35.161  0.00  0.00    +0.000 C 
ATOM     39  O5  UNL     1      28.441  35.868  35.315  0.00  0.00    +0.000 OA
ATOM     40  C24 UNL     1      27.091  35.578  35.367  0.00  0.00    +0.000 A 
ATOM     41  C25 UNL     1      26.477  34.337  35.494  0.00  0.00    +0.000 A 
ENDBRANCH  32  33
ENDBRANCH  15  32
TORSDOF 5
ENDMDL
MODEL 2
REMARK VINA RESULT:    -6.957      1.195      1.941
REMARK INTER + INTRA:         -11.191
REMARK INTER:                  -8.879
REMARK INTRA:                  -2.312
REMARK UNBOUND:                -2.404
REMARK  Name = CNP0192238_3.pdb
REMARK  6 active torsions:
REMARK  status: ('A' for Active; 'I' for Inactive)
REMARK    1  A    between atoms: C1_1  and  C2_2
REMARK    2  A    between atoms: C8_11  and  C9_12
REMARK    3  A    between atoms: C9_12  and  C10_13
REMARK    4  A    between atoms: C13_16  and  O2_17
REMARK    5  A    between atoms: N3_23  and  C18_24
REMARK    6  A    between atoms: C18_24  and  C19_25
REMARK                            x       y       z     vdW  Elec       q    Type
REMARK                         _______ _______ _______ _____ _____    ______ ____
ROOT
ATOM      1  C1  UNL     1      27.328  36.111  38.337  0.00  0.00    +0.000 C 
ATOM      2  C2  UNL     1      26.385  35.636  39.400  0.00  0.00    +0.000 A 
ATOM      3  C3  UNL     1      26.806  35.539  40.746  0.00  0.00    +0.000 A 
ATOM      4  C4  UNL     1      25.914  35.114  41.742  0.00  0.00    +0.000 A 
ATOM      5  C5  UNL     1      24.620  34.762  41.367  0.00  0.00    +0.000 A 
ATOM      6  N1  UNL     1      23.565  34.422  42.246  0.00  0.00    +0.000 N 
ATOM      7  C6  UNL     1      22.424  34.277  41.411  0.00  0.00    +0.000 C 
ATOM      8  O1  UNL     1      21.278  34.021  41.867  0.00  0.00    +0.000 OA
ATOM      9  C7  UNL     1      22.743  34.457  39.939  0.00  0.00    +0.000 C 
ATOM     10  N2  UNL     1      21.986  35.559  39.342  0.00  0.00    +0.000 NA
ATOM     11  C8  UNL     1      20.756  34.969  38.808  0.00  0.00    +0.000 C 
ATOM     12  C16 UNL     1      21.065  33.491  38.454  0.00  0.00    +0.000 C 
ATOM     13  C17 UNL     1      21.348  33.221  37.003  0.00  0.00    +0.000 C 
ATOM     14  O3  UNL     1      20.469  33.244  36.099  0.00  0.00    +0.000 OA
ATOM     15  N3  UNL     1      22.694  32.867  36.751  0.00  0.00    +0.000 N 
ATOM     16  C26 UNL     1      23.330  32.842  38.015  0.00  0.00    +0.000 C 
ATOM     17  O6  UNL     1      24.528  32.480  38.168  0.00  0.00    +0.000 OA
ATOM     18  C27 UNL     1      22.403  33.172  39.152  0.00  0.00    +0.000 C 
ATOM     19  C28 UNL     1      24.206  34.814  40.050  0.00  0.00    +0.000 A 
ATOM     20  C29 UNL     1      25.063  35.290  39.054  0.00  0.00    +0.000 A 
ATOM     21  H6  UNL     1      23.599  34.369  43.289  0.00  0.00    +0.000 HD
ATOM     22  H7  UNL     1      21.749  36.284  40.060  0.00  0.00    +0.000 HD
ENDROOT
BRANCH  11  23
ATOM     23  C9  UNL     1      20.213  35.823  37.644  0.00  0.00    +0.000 C 
BRANCH  23  24
ATOM     24  C10 UNL     1      20.228  37.292  37.980  0.00  0.00    +0.000 A 
ATOM     25  C11 UNL     1      20.908  38.200  37.152  0.00  0.00    +0.000 A 
ATOM     26  C12 UNL     1      20.900  39.566  37.450  0.00  0.00    +0.000 A 
ATOM     27  C13 UNL     1      20.207  40.038  38.573  0.00  0.00    +0.000 A 
ATOM     28  C14 UNL     1      19.519  39.137  39.393  0.00  0.00    +0.000 A 
ATOM     29  C15 UNL     1      19.527  37.772  39.100  0.00  0.00    +0.000 A 
BRANCH  27  30
ATOM     30  O2  UNL     1      20.193  41.396  38.879  0.00  0.00    +0.000 OA
ATOM     31  H13 UNL     1      20.857  41.800  39.529  0.00  0.00    +0.000 HD
ENDBRANCH  27  30
ENDBRANCH  23  24
ENDBRANCH  11  23
BRANCH  15  32
ATOM     32  C18 UNL     1      23.365  32.916  35.453  0.00  0.00    +0.000 C 
BRANCH  32  33
ATOM     33  C19 UNL     1      23.834  34.316  35.166  0.00  0.00    +0.000 A 
ATOM     34  C20 UNL     1      25.186  34.683  35.390  0.00  0.00    +0.000 A 
ATOM     35  C21 UNL     1      25.609  36.008  35.183  0.00  0.00    +0.000 A 
ATOM     36  C22 UNL     1      24.657  36.938  34.779  0.00  0.00    +0.000 A 
ATOM     37  O4  UNL     1      24.819  38.290  34.546  0.00  0.00    +0.000 OA
ATOM     38  C23 UNL     1      23.545  38.830  34.166  0.00  0.00    +0.000 C 
ATOM     39  O5  UNL     1      22.646  37.712  34.183  0.00  0.00    +0.000 OA
ATOM     40  C24 UNL     1      23.363  36.595  34.563  0.00  0.00    +0.000 A 
ATOM     41  C25 UNL     1      22.909  35.291  34.733  0.00  0.00    +0.000 A 
ENDBRANCH  32  33
ENDBRANCH  15  32
TORSDOF 5
ENDMDL
MODEL 3
REMARK VINA RESULT:    -6.939      5.236      8.810
REMARK INTER + INTRA:         -11.169
REMARK INTER:                  -8.967
REMARK INTRA:                  -2.203
REMARK UNBOUND:                -2.404
REMARK  Name = CNP0192238_3.pdb
REMARK  6 active torsions:
REMARK  status: ('A' for Active; 'I' for Inactive)
REMARK    1  A    between atoms: C1_1  and  C2_2
REMARK    2  A    between atoms: C8_11  and  C9_12
REMARK    3  A    between atoms: C9_12  and  C10_13
REMARK    4  A    between atoms: C13_16  and  O2_17
REMARK    5  A    between atoms: N3_23  and  C18_24
REMARK    6  A    between atoms: C18_24  and  C19_25
REMARK                            x       y       z     vdW  Elec       q    Type
REMARK                         _______ _______ _______ _____ _____    ______ ____
ROOT
ATOM      1  C1  UNL     1      16.101  36.371  32.528  0.00  0.00    +0.000 C 
ATOM      2  C2  UNL     1      16.409  37.832  32.659  0.00  0.00    +0.000 A 
ATOM      3  C3  UNL     1      15.468  38.806  32.252  0.00  0.00    +0.000 A 
ATOM      4  C4  UNL     1      15.752  40.172  32.397  0.00  0.00    +0.000 A 
ATOM      5  C5  UNL     1      16.990  40.541  32.919  0.00  0.00    +0.000 A 
ATOM      6  N1  UNL     1      17.396  41.859  33.235  0.00  0.00    +0.000 N 
ATOM      7  C6  UNL     1      18.667  41.712  33.855  0.00  0.00    +0.000 C 
ATOM      8  O1  UNL     1      19.313  42.688  34.318  0.00  0.00    +0.000 OA
ATOM      9  C7  UNL     1      19.144  40.271  33.888  0.00  0.00    +0.000 C 
ATOM     10  N2  UNL     1      19.368  39.797  35.255  0.00  0.00    +0.000 NA
ATOM     11  C8  UNL     1      20.774  40.071  35.558  0.00  0.00    +0.000 C 
ATOM     12  C16 UNL     1      21.552  40.051  34.216  0.00  0.00    +0.000 C 
ATOM     13  C17 UNL     1      22.281  38.773  33.912  0.00  0.00    +0.000 C 
ATOM     14  O3  UNL     1      23.327  38.401  34.512  0.00  0.00    +0.000 OA
ATOM     15  N3  UNL     1      21.722  38.051  32.833  0.00  0.00    +0.000 N 
ATOM     16  C26 UNL     1      20.645  38.838  32.357  0.00  0.00    +0.000 C 
ATOM     17  O6  UNL     1      19.972  38.527  31.338  0.00  0.00    +0.000 OA
ATOM     18  C27 UNL     1      20.473  40.126  33.116  0.00  0.00    +0.000 C 
ATOM     19  C28 UNL     1      17.933  39.602  33.284  0.00  0.00    +0.000 A 
ATOM     20  C29 UNL     1      17.645  38.237  33.201  0.00  0.00    +0.000 A 
ATOM     21  H6  UNL     1      16.848  42.740  33.114  0.00  0.00    +0.000 HD
ATOM     22  H7  UNL     1      18.753  40.306  35.935  0.00  0.00    +0.000 HD
ENDROOT
BRANCH  11  23
ATOM     23  C9  UNL     1      21.292  39.091  36.631  0.00  0.00    +0.000 C 
BRANCH  23  24
ATOM     24  C10 UNL     1      20.621  39.317  37.960  0.00  0.00    +0.000 A 
ATOM     25  C11 UNL     1      20.260  40.614  38.360  0.00  0.00    +0.000 A 
ATOM     26  C12 UNL     1      19.615  40.821  39.582  0.00  0.00    +0.000 A 
ATOM     27  C13 UNL     1      19.315  39.733  40.413  0.00  0.00    +0.000 A 
ATOM     28  C14 UNL     1      19.662  38.438  40.013  0.00  0.00    +0.000 A 
ATOM     29  C15 UNL     1      20.309  38.229  38.794  0.00  0.00    +0.000 A 
BRANCH  27  30
ATOM     30  O2  UNL     1      18.672  39.928  41.633  0.00  0.00    +0.000 OA
ATOM     31  H13 UNL     1      18.159  40.778  41.833  0.00  0.00    +0.000 HD
ENDBRANCH  27  30
ENDBRANCH  23  24
ENDBRANCH  11  23
BRANCH  15  32
ATOM     32  C18 UNL     1      21.945  36.636  32.539  0.00  0.00    +0.000 C 
BRANCH  32  33
ATOM     33  C19 UNL     1      20.796  35.814  33.055  0.00  0.00    +0.000 A 
ATOM     34  C20 UNL     1      20.504  35.776  34.443  0.00  0.00    +0.000 A 
ATOM     35  C21 UNL     1      19.470  34.957  34.932  0.00  0.00    +0.000 A 
ATOM     36  C22 UNL     1      18.770  34.178  34.016  0.00  0.00    +0.000 A 
ATOM     37  O4  UNL     1      17.747  33.281  34.254  0.00  0.00    +0.000 OA
ATOM     38  C23 UNL     1      17.359  32.709  32.997  0.00  0.00    +0.000 C 
ATOM     39  O5  UNL     1      18.206  33.336  32.024  0.00  0.00    +0.000 OA
ATOM     40  C24 UNL     1      19.043  34.210  32.689  0.00  0.00    +0.000 A 
ATOM     41  C25 UNL     1      20.041  35.023  32.162  0.00  0.00    +0.000 A 
ENDBRANCH  32  33
ENDBRANCH  15  32
TORSDOF 5
ENDMDL
MODEL 4
REMARK VINA RESULT:    -6.876      3.778      6.805
REMARK INTER + INTRA:         -11.089
REMARK INTER:                  -8.686
REMARK INTRA:                  -2.403
REMARK UNBOUND:                -2.404
REMARK  Name = CNP0192238_3.pdb
REMARK  6 active torsions:
REMARK  status: ('A' for Active; 'I' for Inactive)
REMARK    1  A    between atoms: C1_1  and  C2_2
REMARK    2  A    between atoms: C8_11  and  C9_12
REMARK    3  A    between atoms: C9_12  and  C10_13
REMARK    4  A    between atoms: C13_16  and  O2_17
REMARK    5  A    between atoms: N3_23  and  C18_24
REMARK    6  A    between atoms: C18_24  and  C19_25
REMARK                            x       y       z     vdW  Elec       q    Type
REMARK                         _______ _______ _______ _____ _____    ______ ____
ROOT
ATOM      1  C1  UNL     1      18.563  37.640  36.085  0.00  0.00    +0.000 C 
ATOM      2  C2  UNL     1      19.226  37.083  37.307  0.00  0.00    +0.000 A 
ATOM      3  C3  UNL     1      19.338  37.858  38.484  0.00  0.00    +0.000 A 
ATOM      4  C4  UNL     1      19.940  37.325  39.633  0.00  0.00    +0.000 A 
ATOM      5  C5  UNL     1      20.451  36.031  39.574  0.00  0.00    +0.000 A 
ATOM      6  N1  UNL     1      20.987  35.301  40.661  0.00  0.00    +0.000 N 
ATOM      7  C6  UNL     1      21.245  34.004  40.141  0.00  0.00    +0.000 C 
ATOM      8  O1  UNL     1      21.686  33.063  40.852  0.00  0.00    +0.000 OA
ATOM      9  C7  UNL     1      20.939  33.892  38.658  0.00  0.00    +0.000 C 
ATOM     10  N2  UNL     1      19.924  32.873  38.381  0.00  0.00    +0.000 NA
ATOM     11  C8  UNL     1      20.651  31.627  38.132  0.00  0.00    +0.000 C 
ATOM     12  C16 UNL     1      22.048  32.007  37.576  0.00  0.00    +0.000 C 
ATOM     13  C17 UNL     1      22.193  31.921  36.082  0.00  0.00    +0.000 C 
ATOM     14  O3  UNL     1      22.244  30.835  35.443  0.00  0.00    +0.000 OA
ATOM     15  N3  UNL     1      22.337  33.183  35.460  0.00  0.00    +0.000 N 
ATOM     16  C26 UNL     1      22.343  34.133  36.508  0.00  0.00    +0.000 C 
ATOM     17  O6  UNL     1      22.540  35.363  36.312  0.00  0.00    +0.000 OA
ATOM     18  C27 UNL     1      22.212  33.512  37.872  0.00  0.00    +0.000 C 
ATOM     19  C28 UNL     1      20.385  35.275  38.421  0.00  0.00    +0.000 A 
ATOM     20  C29 UNL     1      19.737  35.769  37.285  0.00  0.00    +0.000 A 
ATOM     21  H6  UNL     1      21.093  35.620  41.651  0.00  0.00    +0.000 HD
ATOM     22  H7  UNL     1      19.281  32.751  39.200  0.00  0.00    +0.000 HD
ENDROOT
BRANCH  11  23
ATOM     23  C9  UNL     1      19.819  30.691  37.232  0.00  0.00    +0.000 C 
BRANCH  23  24
ATOM     24  C10 UNL     1      18.373  30.655  37.655  0.00  0.00    +0.000 A 
ATOM     25  C11 UNL     1      17.368  31.097  36.780  0.00  0.00    +0.000 A 
ATOM     26  C12 UNL     1      16.025  31.040  37.164  0.00  0.00    +0.000 A 
ATOM     27  C13 UNL     1      15.673  30.533  38.422  0.00  0.00    +0.000 A 
ATOM     28  C14 UNL     1      16.672  30.081  39.292  0.00  0.00    +0.000 A 
ATOM     29  C15 UNL     1      18.014  30.139  38.913  0.00  0.00    +0.000 A 
BRANCH  27  30
ATOM     30  O2  UNL     1      14.338  30.472  38.815  0.00  0.00    +0.000 OA
ATOM     31  H13 UNL     1      13.988  31.025  39.588  0.00  0.00    +0.000 HD
ENDBRANCH  27  30
ENDBRANCH  23  24
ENDBRANCH  11  23
BRANCH  15  32
ATOM     32  C18 UNL     1      22.121  33.469  34.042  0.00  0.00    +0.000 C 
BRANCH  32  33
ATOM     33  C19 UNL     1      20.698  33.898  33.814  0.00  0.00    +0.000 A 
ATOM     34  C20 UNL     1      19.628  32.991  34.031  0.00  0.00    +0.000 A 
ATOM     35  C21 UNL     1      18.303  33.372  33.755  0.00  0.00    +0.000 A 
ATOM     36  C22 UNL     1      18.086  34.648  33.247  0.00  0.00    +0.000 A 
ATOM     37  O4  UNL     1      16.893  35.235  32.872  0.00  0.00    +0.000 OA
ATOM     38  C23 UNL     1      17.180  36.555  32.392  0.00  0.00    +0.000 C 
ATOM     39  O5  UNL     1      18.601  36.699  32.522  0.00  0.00    +0.000 OA
ATOM     40  C24 UNL     1      19.103  35.520  33.038  0.00  0.00    +0.000 A 
ATOM     41  C25 UNL     1      20.425  35.192  33.319  0.00  0.00    +0.000 A 
ENDBRANCH  32  33
ENDBRANCH  15  32
TORSDOF 5
ENDMDL
MODEL 5
REMARK VINA RESULT:    -6.688      4.181      8.166
REMARK INTER + INTRA:         -10.851
REMARK INTER:                  -8.738
REMARK INTRA:                  -2.113
REMARK UNBOUND:                -2.404
REMARK  Name = CNP0192238_3.pdb
REMARK  6 active torsions:
REMARK  status: ('A' for Active; 'I' for Inactive)
REMARK    1  A    between atoms: C1_1  and  C2_2
REMARK    2  A    between atoms: C8_11  and  C9_12
REMARK    3  A    between atoms: C9_12  and  C10_13
REMARK    4  A    between atoms: C13_16  and  O2_17
REMARK    5  A    between atoms: N3_23  and  C18_24
REMARK    6  A    between atoms: C18_24  and  C19_25
REMARK                            x       y       z     vdW  Elec       q    Type
REMARK                         _______ _______ _______ _____ _____    ______ ____
ROOT
ATOM      1  C1  UNL     1      16.414  38.151  32.407  0.00  0.00    +0.000 C 
ATOM      2  C2  UNL     1      17.197  39.024  33.340  0.00  0.00    +0.000 A 
ATOM      3  C3  UNL     1      16.861  40.387  33.506  0.00  0.00    +0.000 A 
ATOM      4  C4  UNL     1      17.584  41.195  34.396  0.00  0.00    +0.000 A 
ATOM      5  C5  UNL     1      18.655  40.630  35.085  0.00  0.00    +0.000 A 
ATOM      6  N1  UNL     1      19.416  41.262  36.095  0.00  0.00    +0.000 N 
ATOM      7  C6  UNL     1      20.292  40.253  36.580  0.00  0.00    +0.000 C 
ATOM      8  O1  UNL     1      21.092  40.449  37.533  0.00  0.00    +0.000 OA
ATOM      9  C7  UNL     1      20.156  38.942  35.827  0.00  0.00    +0.000 C 
ATOM     10  N2  UNL     1      19.770  37.838  36.707  0.00  0.00    +0.000 NA
ATOM     11  C8  UNL     1      21.018  37.226  37.168  0.00  0.00    +0.000 C 
ATOM     12  C16 UNL     1      22.089  37.473  36.073  0.00  0.00    +0.000 C 
ATOM     13  C17 UNL     1      22.336  36.321  35.140  0.00  0.00    +0.000 C 
ATOM     14  O3  UNL     1      22.935  35.263  35.474  0.00  0.00    +0.000 OA
ATOM     15  N3  UNL     1      21.891  36.564  33.820  0.00  0.00    +0.000 N 
ATOM     16  C26 UNL     1      21.384  37.886  33.819  0.00  0.00    +0.000 C 
ATOM     17  O6  UNL     1      20.977  38.459  32.773  0.00  0.00    +0.000 OA
ATOM     18  C27 UNL     1      21.495  38.564  35.158  0.00  0.00    +0.000 C 
ATOM     19  C28 UNL     1      19.020  39.311  34.904  0.00  0.00    +0.000 A 
ATOM     20  C29 UNL     1      18.276  38.477  34.065  0.00  0.00    +0.000 A 
ATOM     21  H6  UNL     1      19.304  42.234  36.462  0.00  0.00    +0.000 HD
ATOM     22  H7  UNL     1      19.222  38.188  37.530  0.00  0.00    +0.000 HD
ENDROOT
BRANCH  11  23
ATOM     23  C9  UNL     1      20.785  35.746  37.535  0.00  0.00    +0.000 C 
BRANCH  23  24
ATOM     24  C10 UNL     1      21.514  35.366  38.798  0.00  0.00    +0.000 A 
ATOM     25  C11 UNL     1      20.795  35.027  39.955  0.00  0.00    +0.000 A 
ATOM     26  C12 UNL     1      21.471  34.651  41.120  0.00  0.00    +0.000 A 
ATOM     27  C13 UNL     1      22.872  34.601  41.136  0.00  0.00    +0.000 A 
ATOM     28  C14 UNL     1      23.591  34.927  39.980  0.00  0.00    +0.000 A 
ATOM     29  C15 UNL     1      22.918  35.306  38.817  0.00  0.00    +0.000 A 
BRANCH  27  30
ATOM     30  O2  UNL     1      23.556  34.228  42.290  0.00  0.00    +0.000 OA
ATOM     31  H13 UNL     1      24.567  34.178  42.314  0.00  0.00    +0.000 HD
ENDBRANCH  27  30
ENDBRANCH  23  24
ENDBRANCH  11  23
BRANCH  15  32
ATOM     32  C18 UNL     1      21.639  35.548  32.799  0.00  0.00    +0.000 C 
BRANCH  32  33
ATOM     33  C19 UNL     1      20.190  35.145  32.819  0.00  0.00    +0.000 A 
ATOM     34  C20 UNL     1      19.646  34.464  33.938  0.00  0.00    +0.000 A 
ATOM     35  C21 UNL     1      18.308  34.031  33.929  0.00  0.00    +0.000 A 
ATOM     36  C22 UNL     1      17.555  34.273  32.784  0.00  0.00    +0.000 A 
ATOM     37  O4  UNL     1      16.245  33.920  32.525  0.00  0.00    +0.000 OA
ATOM     38  C23 UNL     1      15.917  34.372  31.204  0.00  0.00    +0.000 C 
ATOM     39  O5  UNL     1      17.106  35.014  30.723  0.00  0.00    +0.000 OA
ATOM     40  C24 UNL     1      18.067  34.924  31.712  0.00  0.00    +0.000 A 
ATOM     41  C25 UNL     1      19.378  35.389  31.689  0.00  0.00    +0.000 A 
ENDBRANCH  32  33
ENDBRANCH  15  32
TORSDOF 5
ENDMDL
MODEL 6
REMARK VINA RESULT:    -6.641      4.164      8.266
REMARK INTER + INTRA:         -10.793
REMARK INTER:                  -8.723
REMARK INTRA:                  -2.070
REMARK UNBOUND:                -2.404
REMARK  Name = CNP0192238_3.pdb
REMARK  6 active torsions:
REMARK  status: ('A' for Active; 'I' for Inactive)
REMARK    1  A    between atoms: C1_1  and  C2_2
REMARK    2  A    between atoms: C8_11  and  C9_12
REMARK    3  A    between atoms: C9_12  and  C10_13
REMARK    4  A    between atoms: C13_16  and  O2_17
REMARK    5  A    between atoms: N3_23  and  C18_24
REMARK    6  A    between atoms: C18_24  and  C19_25
REMARK                            x       y       z     vdW  Elec       q    Type
REMARK                         _______ _______ _______ _____ _____    ______ ____
ROOT
ATOM      1  C1  UNL     1      20.870  42.845  32.816  0.00  0.00    +0.000 C 
ATOM      2  C2  UNL     1      22.026  41.899  32.931  0.00  0.00    +0.000 A 
ATOM      3  C3  UNL     1      23.283  42.225  32.371  0.00  0.00    +0.000 A 
ATOM      4  C4  UNL     1      24.368  41.346  32.499  0.00  0.00    +0.000 A 
ATOM      5  C5  UNL     1      24.168  40.136  33.160  0.00  0.00    +0.000 A 
ATOM      6  N1  UNL     1      25.170  39.189  33.476  0.00  0.00    +0.000 N 
ATOM      7  C6  UNL     1      24.509  38.203  34.259  0.00  0.00    +0.000 C 
ATOM      8  O1  UNL     1      25.113  37.220  34.763  0.00  0.00    +0.000 OA
ATOM      9  C7  UNL     1      23.022  38.468  34.407  0.00  0.00    +0.000 C 
ATOM     10  N2  UNL     1      22.627  38.625  35.808  0.00  0.00    +0.000 NA
ATOM     11  C8  UNL     1      22.244  37.291  36.277  0.00  0.00    +0.000 C 
ATOM     12  C16 UNL     1      21.741  36.492  35.047  0.00  0.00    +0.000 C 
ATOM     13  C17 UNL     1      20.249  36.426  34.887  0.00  0.00    +0.000 C 
ATOM     14  O3  UNL     1      19.492  35.742  35.629  0.00  0.00    +0.000 OA
ATOM     15  N3  UNL     1      19.771  37.154  33.773  0.00  0.00    +0.000 N 
ATOM     16  C26 UNL     1      20.920  37.681  33.135  0.00  0.00    +0.000 C 
ATOM     17  O6  UNL     1      20.863  38.321  32.051  0.00  0.00    +0.000 OA
ATOM     18  C27 UNL     1      22.205  37.298  33.817  0.00  0.00    +0.000 C 
ATOM     19  C28 UNL     1      22.937  39.787  33.678  0.00  0.00    +0.000 A 
ATOM     20  C29 UNL     1      21.860  40.675  33.610  0.00  0.00    +0.000 A 
ATOM     21  H6  UNL     1      26.189  39.243  33.253  0.00  0.00    +0.000 HD
ATOM     22  H7  UNL     1      23.424  38.989  36.384  0.00  0.00    +0.000 HD
ENDROOT
BRANCH  11  23
ATOM     23  C9  UNL     1      21.240  37.401  37.443  0.00  0.00    +0.000 C 
BRANCH  23  24
ATOM     24  C10 UNL     1      21.396  36.263  38.418  0.00  0.00    +0.000 A 
ATOM     25  C11 UNL     1      20.273  35.737  39.078  0.00  0.00    +0.000 A 
ATOM     26  C12 UNL     1      20.415  34.665  39.964  0.00  0.00    +0.000 A 
ATOM     27  C13 UNL     1      21.678  34.102  40.192  0.00  0.00    +0.000 A 
ATOM     28  C14 UNL     1      22.797  34.616  39.527  0.00  0.00    +0.000 A 
ATOM     29  C15 UNL     1      22.659  35.688  38.645  0.00  0.00    +0.000 A 
BRANCH  27  30
ATOM     30  O2  UNL     1      21.830  33.034  41.072  0.00  0.00    +0.000 OA
ATOM     31  H13 UNL     1      21.319  32.168  40.949  0.00  0.00    +0.000 HD
ENDBRANCH  27  30
ENDBRANCH  23  24
ENDBRANCH  11  23
BRANCH  15  32
ATOM     32  C18 UNL     1      18.394  37.597  33.564  0.00  0.00    +0.000 C 
BRANCH  32  33
ATOM     33  C19 UNL     1      18.260  39.052  33.920  0.00  0.00    +0.000 A 
ATOM     34  C20 UNL     1      18.865  39.564  35.097  0.00  0.00    +0.000 A 
ATOM     35  C21 UNL     1      18.686  40.910  35.464  0.00  0.00    +0.000 A 
ATOM     36  C22 UNL     1      17.884  41.704  34.650  0.00  0.00    +0.000 A 
ATOM     37  O4  UNL     1      17.535  43.030  34.816  0.00  0.00    +0.000 OA
ATOM     38  C23 UNL     1      16.676  43.402  33.729  0.00  0.00    +0.000 C 
ATOM     39  O5  UNL     1      16.561  42.220  32.924  0.00  0.00    +0.000 OA
ATOM     40  C24 UNL     1      17.303  41.222  33.524  0.00  0.00    +0.000 A 
ATOM     41  C25 UNL     1      17.474  39.904  33.114  0.00  0.00    +0.000 A 
ENDBRANCH  32  33
ENDBRANCH  15  32
TORSDOF 5
ENDMDL
MODEL 7
REMARK VINA RESULT:    -6.587      4.145      7.147
REMARK INTER + INTRA:         -10.724
REMARK INTER:                  -8.713
REMARK INTRA:                  -2.011
REMARK UNBOUND:                -2.404
REMARK  Name = CNP0192238_3.pdb
REMARK  6 active torsions:
REMARK  status: ('A' for Active; 'I' for Inactive)
REMARK    1  A    between atoms: C1_1  and  C2_2
REMARK    2  A    between atoms: C8_11  and  C9_12
REMARK    3  A    between atoms: C9_12  and  C10_13
REMARK    4  A    between atoms: C13_16  and  O2_17
REMARK    5  A    between atoms: N3_23  and  C18_24
REMARK    6  A    between atoms: C18_24  and  C19_25
REMARK                            x       y       z     vdW  Elec       q    Type
REMARK                         _______ _______ _______ _____ _____    ______ ____
ROOT
ATOM      1  C1  UNL     1      24.929  41.063  31.569  0.00  0.00    +0.000 C 
ATOM      2  C2  UNL     1      25.114  39.945  32.550  0.00  0.00    +0.000 A 
ATOM      3  C3  UNL     1      26.406  39.448  32.842  0.00  0.00    +0.000 A 
ATOM      4  C4  UNL     1      26.576  38.416  33.776  0.00  0.00    +0.000 A 
ATOM      5  C5  UNL     1      25.445  37.875  34.381  0.00  0.00    +0.000 A 
ATOM      6  N1  UNL     1      25.439  36.915  35.420  0.00  0.00    +0.000 N 
ATOM      7  C6  UNL     1      24.073  36.783  35.790  0.00  0.00    +0.000 C 
ATOM      8  O1  UNL     1      23.695  36.038  36.732  0.00  0.00    +0.000 OA
ATOM      9  C7  UNL     1      23.145  37.623  34.932  0.00  0.00    +0.000 C 
ATOM     10  N2  UNL     1      22.387  38.591  35.726  0.00  0.00    +0.000 NA
ATOM     11  C8  UNL     1      21.135  37.927  36.095  0.00  0.00    +0.000 C 
ATOM     12  C16 UNL     1      20.822  36.879  34.994  0.00  0.00    +0.000 C 
ATOM     13  C17 UNL     1      19.822  37.310  33.959  0.00  0.00    +0.000 C 
ATOM     14  O3  UNL     1      18.586  37.429  34.183  0.00  0.00    +0.000 OA
ATOM     15  N3  UNL     1      20.389  37.505  32.678  0.00  0.00    +0.000 N 
ATOM     16  C26 UNL     1      21.757  37.167  32.806  0.00  0.00    +0.000 C 
ATOM     17  O6  UNL     1      22.549  37.149  31.825  0.00  0.00    +0.000 OA
ATOM     18  C27 UNL     1      22.131  36.722  34.194  0.00  0.00    +0.000 C 
ATOM     19  C28 UNL     1      24.175  38.323  34.078  0.00  0.00    +0.000 A 
ATOM     20  C29 UNL     1      23.990  39.389  33.193  0.00  0.00    +0.000 A 
ATOM     21  H6  UNL     1      26.265  36.462  35.872  0.00  0.00    +0.000 HD
ATOM     22  H7  UNL     1      22.913  38.862  36.591  0.00  0.00    +0.000 HD
ENDROOT
BRANCH  11  23
ATOM     23  C9  UNL     1      20.026  38.971  36.340  0.00  0.00    +0.000 C 
BRANCH  23  24
ATOM     24  C10 UNL     1      19.795  39.199  37.812  0.00  0.00    +0.000 A 
ATOM     25  C11 UNL     1      19.787  40.503  38.333  0.00  0.00    +0.000 A 
ATOM     26  C12 UNL     1      19.548  40.715  39.694  0.00  0.00    +0.000 A 
ATOM     27  C13 UNL     1      19.306  39.628  40.545  0.00  0.00    +0.000 A 
ATOM     28  C14 UNL     1      19.302  38.329  40.026  0.00  0.00    +0.000 A 
ATOM     29  C15 UNL     1      19.544  38.113  38.668  0.00  0.00    +0.000 A 
BRANCH  27  30
ATOM     30  O2  UNL     1      19.067  39.829  41.902  0.00  0.00    +0.000 OA
ATOM     31  H13 UNL     1      19.354  39.150  42.597  0.00  0.00    +0.000 HD
ENDBRANCH  27  30
ENDBRANCH  23  24
ENDBRANCH  11  23
BRANCH  15  32
ATOM     32  C18 UNL     1      19.791  38.265  31.582  0.00  0.00    +0.000 C 
BRANCH  32  33
ATOM     33  C19 UNL     1      19.944  39.740  31.834  0.00  0.00    +0.000 A 
ATOM     34  C20 UNL     1      21.090  40.435  31.369  0.00  0.00    +0.000 A 
ATOM     35  C21 UNL     1      21.264  41.800  31.660  0.00  0.00    +0.000 A 
ATOM     36  C22 UNL     1      20.293  42.428  32.433  0.00  0.00    +0.000 A 
ATOM     37  O4  UNL     1      20.257  43.737  32.874  0.00  0.00    +0.000 OA
ATOM     38  C23 UNL     1      19.065  43.909  33.653  0.00  0.00    +0.000 C 
ATOM     39  O5  UNL     1      18.413  42.632  33.625  0.00  0.00    +0.000 OA
ATOM     40  C24 UNL     1      19.195  41.771  32.880  0.00  0.00    +0.000 A 
ATOM     41  C25 UNL     1      18.973  40.428  32.595  0.00  0.00    +0.000 A 
ENDBRANCH  32  33
ENDBRANCH  15  32
TORSDOF 5
ENDMDL
MODEL 8
REMARK VINA RESULT:    -6.495     13.071     16.762
REMARK INTER + INTRA:         -10.609
REMARK INTER:                  -8.404
REMARK INTRA:                  -2.205
REMARK UNBOUND:                -2.404
REMARK  Name = CNP0192238_3.pdb
REMARK  6 active torsions:
REMARK  status: ('A' for Active; 'I' for Inactive)
REMARK    1  A    between atoms: C1_1  and  C2_2
REMARK    2  A    between atoms: C8_11  and  C9_12
REMARK    3  A    between atoms: C9_12  and  C10_13
REMARK    4  A    between atoms: C13_16  and  O2_17
REMARK    5  A    between atoms: N3_23  and  C18_24
REMARK    6  A    between atoms: C18_24  and  C19_25
REMARK                            x       y       z     vdW  Elec       q    Type
REMARK                         _______ _______ _______ _____ _____    ______ ____
ROOT
ATOM      1  C1  UNL     1      24.720  54.191  34.469  0.00  0.00    +0.000 C 
ATOM      2  C2  UNL     1      26.056  53.525  34.339  0.00  0.00    +0.000 A 
ATOM      3  C3  UNL     1      27.215  54.119  34.891  0.00  0.00    +0.000 A 
ATOM      4  C4  UNL     1      28.460  53.482  34.786  0.00  0.00    +0.000 A 
ATOM      5  C5  UNL     1      28.530  52.272  34.100  0.00  0.00    +0.000 A 
ATOM      6  N1  UNL     1      29.672  51.444  33.994  0.00  0.00    +0.000 N 
ATOM      7  C6  UNL     1      29.217  50.275  33.324  0.00  0.00    +0.000 C 
ATOM      8  O1  UNL     1      29.965  49.288  33.100  0.00  0.00    +0.000 OA
ATOM      9  C7  UNL     1      27.758  50.360  32.915  0.00  0.00    +0.000 C 
ATOM     10  N2  UNL     1      26.954  49.297  33.520  0.00  0.00    +0.000 NA
ATOM     11  C8  UNL     1      26.961  48.185  32.566  0.00  0.00    +0.000 C 
ATOM     12  C16 UNL     1      27.150  48.789  31.150  0.00  0.00    +0.000 C 
ATOM     13  C17 UNL     1      25.892  48.948  30.343  0.00  0.00    +0.000 C 
ATOM     14  O3  UNL     1      25.256  47.984  29.837  0.00  0.00    +0.000 OA
ATOM     15  N3  UNL     1      25.521  50.298  30.143  0.00  0.00    +0.000 N 
ATOM     16  C26 UNL     1      26.533  51.073  30.760  0.00  0.00    +0.000 C 
ATOM     17  O6  UNL     1      26.560  52.331  30.699  0.00  0.00    +0.000 OA
ATOM     18  C27 UNL     1      27.620  50.240  31.382  0.00  0.00    +0.000 C 
ATOM     19  C28 UNL     1      27.414  51.699  33.522  0.00  0.00    +0.000 A 
ATOM     20  C29 UNL     1      26.156  52.291  33.667  0.00  0.00    +0.000 A 
ATOM     21  H6  UNL     1      30.622  51.617  34.394  0.00  0.00    +0.000 HD
ATOM     22  H7  UNL     1      27.368  48.984  34.431  0.00  0.00    +0.000 HD
ENDROOT
BRANCH  11  23
ATOM     23  C9  UNL     1      25.699  47.317  32.745  0.00  0.00    +0.000 C 
BRANCH  23  24
ATOM     24  C10 UNL     1      25.511  46.902  34.182  0.00  0.00    +0.000 A 
ATOM     25  C11 UNL     1      24.690  47.657  35.035  0.00  0.00    +0.000 A 
ATOM     26  C12 UNL     1      24.496  47.258  36.361  0.00  0.00    +0.000 A 
ATOM     27  C13 UNL     1      25.113  46.095  36.844  0.00  0.00    +0.000 A 
ATOM     28  C14 UNL     1      25.921  45.334  35.992  0.00  0.00    +0.000 A 
ATOM     29  C15 UNL     1      26.119  45.732  34.669  0.00  0.00    +0.000 A 
BRANCH  27  30
ATOM     30  O2  UNL     1      24.927  45.689  38.162  0.00  0.00    +0.000 OA
ATOM     31  H13 UNL     1      24.754  46.356  38.904  0.00  0.00    +0.000 HD
ENDBRANCH  27  30
ENDBRANCH  23  24
ENDBRANCH  11  23
BRANCH  15  32
ATOM     32  C18 UNL     1      24.196  50.774  29.749  0.00  0.00    +0.000 C 
BRANCH  32  33
ATOM     33  C19 UNL     1      23.394  51.136  30.968  0.00  0.00    +0.000 A 
ATOM     34  C20 UNL     1      22.994  50.135  31.891  0.00  0.00    +0.000 A 
ATOM     35  C21 UNL     1      22.189  50.464  32.996  0.00  0.00    +0.000 A 
ATOM     36  C22 UNL     1      21.786  51.788  33.136  0.00  0.00    +0.000 A 
ATOM     37  O4  UNL     1      20.978  52.344  34.108  0.00  0.00    +0.000 OA
ATOM     38  C23 UNL     1      20.835  53.742  33.818  0.00  0.00    +0.000 C 
ATOM     39  O5  UNL     1      21.615  53.960  32.635  0.00  0.00    +0.000 OA
ATOM     40  C24 UNL     1      22.165  52.750  32.259  0.00  0.00    +0.000 A 
ATOM     41  C25 UNL     1      22.979  52.472  31.166  0.00  0.00    +0.000 A 
ENDBRANCH  32  33
ENDBRANCH  15  32
TORSDOF 5
ENDMDL
MODEL 9
REMARK VINA RESULT:    -6.445      5.416      8.675
REMARK INTER + INTRA:         -10.544
REMARK INTER:                  -8.681
REMARK INTRA:                  -1.864
REMARK UNBOUND:                -2.404
REMARK  Name = CNP0192238_3.pdb
REMARK  6 active torsions:
REMARK  status: ('A' for Active; 'I' for Inactive)
REMARK    1  A    between atoms: C1_1  and  C2_2
REMARK    2  A    between atoms: C8_11  and  C9_12
REMARK    3  A    between atoms: C9_12  and  C10_13
REMARK    4  A    between atoms: C13_16  and  O2_17
REMARK    5  A    between atoms: N3_23  and  C18_24
REMARK    6  A    between atoms: C18_24  and  C19_25
REMARK                            x       y       z     vdW  Elec       q    Type
REMARK                         _______ _______ _______ _____ _____    ______ ____
ROOT
ATOM      1  C1  UNL     1      19.613  40.831  39.004  0.00  0.00    +0.000 C 
ATOM      2  C2  UNL     1      19.747  39.385  38.632  0.00  0.00    +0.000 A 
ATOM      3  C3  UNL     1      19.990  38.405  39.622  0.00  0.00    +0.000 A 
ATOM      4  C4  UNL     1      20.094  37.051  39.272  0.00  0.00    +0.000 A 
ATOM      5  C5  UNL     1      19.985  36.703  37.928  0.00  0.00    +0.000 A 
ATOM      6  N1  UNL     1      19.954  35.386  37.413  0.00  0.00    +0.000 N 
ATOM      7  C6  UNL     1      19.699  35.542  36.023  0.00  0.00    +0.000 C 
ATOM      8  O1  UNL     1      19.555  34.562  35.246  0.00  0.00    +0.000 OA
ATOM      9  C7  UNL     1      19.628  36.996  35.596  0.00  0.00    +0.000 C 
ATOM     10  N2  UNL     1      18.331  37.334  35.006  0.00  0.00    +0.000 NA
ATOM     11  C8  UNL     1      18.467  37.114  33.565  0.00  0.00    +0.000 C 
ATOM     12  C16 UNL     1      19.959  37.324  33.200  0.00  0.00    +0.000 C 
ATOM     13  C17 UNL     1      20.300  38.668  32.622  0.00  0.00    +0.000 C 
ATOM     14  O3  UNL     1      19.974  39.036  31.460  0.00  0.00    +0.000 OA
ATOM     15  N3  UNL     1      21.087  39.467  33.484  0.00  0.00    +0.000 N 
ATOM     16  C26 UNL     1      21.334  38.672  34.629  0.00  0.00    +0.000 C 
ATOM     17  O6  UNL     1      22.081  39.049  35.571  0.00  0.00    +0.000 OA
ATOM     18  C27 UNL     1      20.716  37.303  34.544  0.00  0.00    +0.000 C 
ATOM     19  C28 UNL     1      19.788  37.653  36.946  0.00  0.00    +0.000 A 
ATOM     20  C29 UNL     1      19.624  39.000  37.282  0.00  0.00    +0.000 A 
ATOM     21  H6  UNL     1      20.022  34.492  37.949  0.00  0.00    +0.000 HD
ATOM     22  H7  UNL     1      17.573  36.720  35.389  0.00  0.00    +0.000 HD
ENDROOT
BRANCH  11  23
ATOM     23  C9  UNL     1      17.472  38.003  32.791  0.00  0.00    +0.000 C 
BRANCH  23  24
ATOM     24  C10 UNL     1      16.457  37.179  32.042  0.00  0.00    +0.000 A 
ATOM     25  C11 UNL     1      15.781  37.720  30.937  0.00  0.00    +0.000 A 
ATOM     26  C12 UNL     1      14.858  36.946  30.227  0.00  0.00    +0.000 A 
ATOM     27  C13 UNL     1      14.609  35.621  30.609  0.00  0.00    +0.000 A 
ATOM     28  C14 UNL     1      15.290  35.074  31.703  0.00  0.00    +0.000 A 
ATOM     29  C15 UNL     1      16.209  35.846  32.415  0.00  0.00    +0.000 A 
BRANCH  27  30
ATOM     30  O2  UNL     1      13.692  34.841  29.909  0.00  0.00    +0.000 OA
ATOM     31  H13 UNL     1      12.853  34.484  30.351  0.00  0.00    +0.000 HD
ENDBRANCH  27  30
ENDBRANCH  23  24
ENDBRANCH  11  23
BRANCH  15  32
ATOM     32  C18 UNL     1      21.259  40.916  33.391  0.00  0.00    +0.000 C 
BRANCH  32  33
ATOM     33  C19 UNL     1      19.941  41.607  33.604  0.00  0.00    +0.000 A 
ATOM     34  C20 UNL     1      19.257  41.489  34.842  0.00  0.00    +0.000 A 
ATOM     35  C21 UNL     1      17.995  42.082  35.018  0.00  0.00    +0.000 A 
ATOM     36  C22 UNL     1      17.439  42.761  33.939  0.00  0.00    +0.000 A 
ATOM     37  O4  UNL     1      16.212  43.391  33.857  0.00  0.00    +0.000 OA
ATOM     38  C23 UNL     1      16.079  43.932  32.536  0.00  0.00    +0.000 C 
ATOM     39  O5  UNL     1      17.301  43.589  31.867  0.00  0.00    +0.000 OA
ATOM     40  C24 UNL     1      18.087  42.879  32.754  0.00  0.00    +0.000 A 
ATOM     41  C25 UNL     1      19.346  42.327  32.545  0.00  0.00    +0.000 A 
ENDBRANCH  32  33
ENDBRANCH  15  32
TORSDOF 5
ENDMDL
MODEL 10
REMARK VINA RESULT:    -6.445      5.191      8.159
REMARK INTER + INTRA:         -10.544
REMARK INTER:                  -8.354
REMARK INTRA:                  -2.190
REMARK UNBOUND:                -2.404
REMARK  Name = CNP0192238_3.pdb
REMARK  6 active torsions:
REMARK  status: ('A' for Active; 'I' for Inactive)
REMARK    1  A    between atoms: C1_1  and  C2_2
REMARK    2  A    between atoms: C8_11  and  C9_12
REMARK    3  A    between atoms: C9_12  and  C10_13
REMARK    4  A    between atoms: C13_16  and  O2_17
REMARK    5  A    between atoms: N3_23  and  C18_24
REMARK    6  A    between atoms: C18_24  and  C19_25
REMARK                            x       y       z     vdW  Elec       q    Type
REMARK                         _______ _______ _______ _____ _____    ______ ____
ROOT
ATOM      1  C1  UNL     1      22.236  37.122  29.558  0.00  0.00    +0.000 C 
ATOM      2  C2  UNL     1      20.948  36.756  30.230  0.00  0.00    +0.000 A 
ATOM      3  C3  UNL     1      20.144  35.707  29.726  0.00  0.00    +0.000 A 
ATOM      4  C4  UNL     1      18.950  35.353  30.371  0.00  0.00    +0.000 A 
ATOM      5  C5  UNL     1      18.562  36.079  31.495  0.00  0.00    +0.000 A 
ATOM      6  N1  UNL     1      17.456  35.790  32.327  0.00  0.00    +0.000 N 
ATOM      7  C6  UNL     1      17.553  36.716  33.402  0.00  0.00    +0.000 C 
ATOM      8  O1  UNL     1      16.750  36.717  34.371  0.00  0.00    +0.000 OA
ATOM      9  C7  UNL     1      18.710  37.685  33.242  0.00  0.00    +0.000 C 
ATOM     10  N2  UNL     1      19.660  37.595  34.353  0.00  0.00    +0.000 NA
ATOM     11  C8  UNL     1      19.222  38.578  35.347  0.00  0.00    +0.000 C 
ATOM     12  C16 UNL     1      18.478  39.707  34.588  0.00  0.00    +0.000 C 
ATOM     13  C17 UNL     1      19.289  40.942  34.312  0.00  0.00    +0.000 C 
ATOM     14  O3  UNL     1      19.626  41.773  35.199  0.00  0.00    +0.000 OA
ATOM     15  N3  UNL     1      19.584  41.125  32.941  0.00  0.00    +0.000 N 
ATOM     16  C26 UNL     1      18.946  40.059  32.263  0.00  0.00    +0.000 C 
ATOM     17  O6  UNL     1      18.935  39.961  31.006  0.00  0.00    +0.000 OA
ATOM     18  C27 UNL     1      18.192  39.138  33.183  0.00  0.00    +0.000 C 
ATOM     19  C28 UNL     1      19.317  37.131  31.976  0.00  0.00    +0.000 A 
ATOM     20  C29 UNL     1      20.538  37.459  31.381  0.00  0.00    +0.000 A 
ATOM     21  H6  UNL     1      16.765  35.014  32.220  0.00  0.00    +0.000 HD
ATOM     22  H7  UNL     1      19.655  36.636  34.776  0.00  0.00    +0.000 HD
ENDROOT
BRANCH  11  23
ATOM     23  C9  UNL     1      20.416  39.041  36.205  0.00  0.00    +0.000 C 
BRANCH  23  24
ATOM     24  C10 UNL     1      20.031  39.198  37.654  0.00  0.00    +0.000 A 
ATOM     25  C11 UNL     1      19.742  38.068  38.436  0.00  0.00    +0.000 A 
ATOM     26  C12 UNL     1      19.409  38.211  39.786  0.00  0.00    +0.000 A 
ATOM     27  C13 UNL     1      19.370  39.485  40.370  0.00  0.00    +0.000 A 
ATOM     28  C14 UNL     1      19.669  40.612  39.596  0.00  0.00    +0.000 A 
ATOM     29  C15 UNL     1      19.998  40.472  38.247  0.00  0.00    +0.000 A 
BRANCH  27  30
ATOM     30  O2  UNL     1      19.039  39.640  41.713  0.00  0.00    +0.000 OA
ATOM     31  H13 UNL     1      19.751  39.709  42.430  0.00  0.00    +0.000 HD
ENDBRANCH  27  30
ENDBRANCH  23  24
ENDBRANCH  11  23
BRANCH  15  32
ATOM     32  C18 UNL     1      20.637  41.981  32.398  0.00  0.00    +0.000 C 
BRANCH  32  33
ATOM     33  C19 UNL     1      21.906  41.192  32.226  0.00  0.00    +0.000 A 
ATOM     34  C20 UNL     1      22.494  41.042  30.944  0.00  0.00    +0.000 A 
ATOM     35  C21 UNL     1      23.644  40.251  30.774  0.00  0.00    +0.000 A 
ATOM     36  C22 UNL     1      24.162  39.609  31.894  0.00  0.00    +0.000 A 
ATOM     37  O4  UNL     1      25.251  38.763  31.975  0.00  0.00    +0.000 OA
ATOM     38  C23 UNL     1      25.382  38.338  33.339  0.00  0.00    +0.000 C 
ATOM     39  O5  UNL     1      24.317  38.996  34.038  0.00  0.00    +0.000 OA
ATOM     40  C24 UNL     1      23.606  39.748  33.123  0.00  0.00    +0.000 A 
ATOM     41  C25 UNL     1      22.483  40.540  33.338  0.00  0.00    +0.000 A 
ENDBRANCH  32  33
ENDBRANCH  15  32
TORSDOF 5
ENDMDL
