MODEL 1
REMARK VINA RESULT:    -7.753      0.000      0.000
REMARK INTER + INTRA:          -8.706
REMARK INTER:                  -8.206
REMARK INTRA:                  -0.500
REMARK UNBOUND:                -0.500
REMARK  Name = CNP0178720_1.pdb
REMARK  1 active torsions:
REMARK  status: ('A' for Active; 'I' for Inactive)
REMARK    1  A    between atoms: N3_19  and  C14_20
REMARK                            x       y       z     vdW  Elec       q    Type
REMARK                         _______ _______ _______ _____ _____    ______ ____
ROOT
ATOM      1  O1  UNL     1      20.150  37.902  34.099  0.00  0.00    +0.000 OA
ATOM      2  C1  UNL     1      19.872  38.991  34.668  0.00  0.00    +0.000 C 
ATOM      3  C2  UNL     1      19.516  40.248  33.925  0.00  0.00    +0.000 C 
ATOM      4  C3  UNL     1      19.515  41.326  35.021  0.00  0.00    +0.000 C 
ATOM      5  C4  UNL     1      18.132  41.972  34.968  0.00  0.00    +0.000 C 
ATOM      6  N1  UNL     1      17.239  41.053  34.267  0.00  0.00    +0.000 NA
ATOM      7  C5  UNL     1      18.081  40.284  33.346  0.00  0.00    +0.000 C 
ATOM      8  C6  UNL     1      18.081  40.872  31.948  0.00  0.00    +0.000 C 
ATOM      9  O2  UNL     1      18.472  42.035  31.664  0.00  0.00    +0.000 OA
ATOM     10  N2  UNL     1      17.589  39.968  30.966  0.00  0.00    +0.000 N 
ATOM     11  C7  UNL     1      17.206  38.815  31.691  0.00  0.00    +0.000 A 
ATOM     12  C8  UNL     1      16.576  37.687  31.167  0.00  0.00    +0.000 A 
ATOM     13  C9  UNL     1      16.179  36.673  32.053  0.00  0.00    +0.000 A 
ATOM     14  C10 UNL     1      16.395  36.813  33.437  0.00  0.00    +0.000 A 
ATOM     15  C11 UNL     1      17.017  37.964  33.944  0.00  0.00    +0.000 A 
ATOM     16  C12 UNL     1      17.448  38.947  33.046  0.00  0.00    +0.000 A 
ATOM     17  C13 UNL     1      19.743  40.560  36.289  0.00  0.00    +0.000 C 
ATOM     18  O3  UNL     1      19.730  41.085  37.435  0.00  0.00    +0.000 OA
ATOM     19  N3  UNL     1      19.960  39.175  36.071  0.00  0.00    +0.000 N 
ATOM     20  H5  UNL     1      16.505  41.599  33.755  0.00  0.00    +0.000 HD
ATOM     21  H6  UNL     1      17.463  40.147  29.945  0.00  0.00    +0.000 HD
ENDROOT
BRANCH  19  22
ATOM     22  C14 UNL     1      20.215  38.164  37.062  0.00  0.00    +0.000 A 
ATOM     23  C15 UNL     1      19.197  37.765  37.945  0.00  0.00    +0.000 A 
ATOM     24  C16 UNL     1      19.437  36.787  38.912  0.00  0.00    +0.000 A 
ATOM     25  C17 UNL     1      20.699  36.186  39.010  0.00  0.00    +0.000 A 
ATOM     26  C18 UNL     1      20.950  35.200  39.978  0.00  0.00    +0.000 A 
ATOM     27  C19 UNL     1      22.213  34.608  40.063  0.00  0.00    +0.000 A 
ATOM     28  C20 UNL     1      23.231  34.992  39.187  0.00  0.00    +0.000 A 
ATOM     29  C21 UNL     1      22.994  35.972  38.219  0.00  0.00    +0.000 A 
ATOM     30  C22 UNL     1      21.730  36.577  38.123  0.00  0.00    +0.000 A 
ATOM     31  C23 UNL     1      21.481  37.562  37.156  0.00  0.00    +0.000 A 
ENDBRANCH  19  22
TORSDOF 1
ENDMDL
MODEL 2
REMARK VINA RESULT:    -7.623      5.352      9.946
REMARK INTER + INTRA:          -8.569
REMARK INTER:                  -8.144
REMARK INTRA:                  -0.425
REMARK UNBOUND:                -0.500
REMARK  Name = CNP0178720_1.pdb
REMARK  1 active torsions:
REMARK  status: ('A' for Active; 'I' for Inactive)
REMARK    1  A    between atoms: N3_19  and  C14_20
REMARK                            x       y       z     vdW  Elec       q    Type
REMARK                         _______ _______ _______ _____ _____    ______ ____
ROOT
ATOM      1  O1  UNL     1      24.281  34.784  38.466  0.00  0.00    +0.000 OA
ATOM      2  C1  UNL     1      23.239  34.102  38.653  0.00  0.00    +0.000 C 
ATOM      3  C2  UNL     1      23.252  32.628  38.945  0.00  0.00    +0.000 C 
ATOM      4  C3  UNL     1      21.773  32.226  38.841  0.00  0.00    +0.000 C 
ATOM      5  C4  UNL     1      21.422  31.576  40.177  0.00  0.00    +0.000 C 
ATOM      6  N1  UNL     1      22.428  31.993  41.151  0.00  0.00    +0.000 NA
ATOM      7  C5  UNL     1      23.655  32.249  40.391  0.00  0.00    +0.000 C 
ATOM      8  C6  UNL     1      24.587  31.053  40.392  0.00  0.00    +0.000 C 
ATOM      9  O2  UNL     1      24.291  29.918  39.932  0.00  0.00    +0.000 OA
ATOM     10  N2  UNL     1      25.853  31.337  40.974  0.00  0.00    +0.000 N 
ATOM     11  C7  UNL     1      25.760  32.680  41.412  0.00  0.00    +0.000 A 
ATOM     12  C8  UNL     1      26.729  33.377  42.132  0.00  0.00    +0.000 A 
ATOM     13  C9  UNL     1      26.428  34.676  42.571  0.00  0.00    +0.000 A 
ATOM     14  C10 UNL     1      25.166  35.242  42.305  0.00  0.00    +0.000 A 
ATOM     15  C11 UNL     1      24.200  34.515  41.591  0.00  0.00    +0.000 A 
ATOM     16  C12 UNL     1      24.530  33.238  41.121  0.00  0.00    +0.000 A 
ATOM     17  C13 UNL     1      21.054  33.524  38.627  0.00  0.00    +0.000 C 
ATOM     18  O3  UNL     1      19.799  33.627  38.571  0.00  0.00    +0.000 OA
ATOM     19  N3  UNL     1      21.931  34.633  38.511  0.00  0.00    +0.000 N 
ATOM     20  H5  UNL     1      22.565  31.235  41.861  0.00  0.00    +0.000 HD
ATOM     21  H6  UNL     1      26.649  30.676  41.117  0.00  0.00    +0.000 HD
ENDROOT
BRANCH  19  22
ATOM     22  C14 UNL     1      21.575  36.010  38.296  0.00  0.00    +0.000 A 
ATOM     23  C15 UNL     1      21.987  36.675  37.130  0.00  0.00    +0.000 A 
ATOM     24  C16 UNL     1      21.649  38.013  36.916  0.00  0.00    +0.000 A 
ATOM     25  C17 UNL     1      20.887  38.709  37.864  0.00  0.00    +0.000 A 
ATOM     26  C18 UNL     1      20.540  40.053  37.659  0.00  0.00    +0.000 A 
ATOM     27  C19 UNL     1      19.778  40.734  38.612  0.00  0.00    +0.000 A 
ATOM     28  C20 UNL     1      19.357  40.082  39.773  0.00  0.00    +0.000 A 
ATOM     29  C21 UNL     1      19.695  38.743  39.990  0.00  0.00    +0.000 A 
ATOM     30  C22 UNL     1      20.463  38.047  39.041  0.00  0.00    +0.000 A 
ATOM     31  C23 UNL     1      20.809  36.703  39.249  0.00  0.00    +0.000 A 
ENDBRANCH  19  22
TORSDOF 1
ENDMDL
MODEL 3
REMARK VINA RESULT:    -7.041     11.239     13.404
REMARK INTER + INTRA:          -7.953
REMARK INTER:                  -7.573
REMARK INTRA:                  -0.379
REMARK UNBOUND:                -0.500
REMARK  Name = CNP0178720_1.pdb
REMARK  1 active torsions:
REMARK  status: ('A' for Active; 'I' for Inactive)
REMARK    1  A    between atoms: N3_19  and  C14_20
REMARK                            x       y       z     vdW  Elec       q    Type
REMARK                         _______ _______ _______ _____ _____    ______ ____
ROOT
ATOM      1  O1  UNL     1      28.898  37.501  37.047  0.00  0.00    +0.000 OA
ATOM      2  C1  UNL     1      29.668  38.298  37.646  0.00  0.00    +0.000 C 
ATOM      3  C2  UNL     1      29.587  38.580  39.120  0.00  0.00    +0.000 C 
ATOM      4  C3  UNL     1      30.539  39.771  39.313  0.00  0.00    +0.000 C 
ATOM      5  C4  UNL     1      31.554  39.328  40.364  0.00  0.00    +0.000 C 
ATOM      6  N1  UNL     1      31.521  37.869  40.426  0.00  0.00    +0.000 NA
ATOM      7  C5  UNL     1      30.165  37.471  40.033  0.00  0.00    +0.000 C 
ATOM      8  C6  UNL     1      29.267  37.241  41.233  0.00  0.00    +0.000 C 
ATOM      9  O2  UNL     1      28.986  38.120  42.091  0.00  0.00    +0.000 OA
ATOM     10  N2  UNL     1      28.763  35.913  41.302  0.00  0.00    +0.000 N 
ATOM     11  C7  UNL     1      29.355  35.241  40.206  0.00  0.00    +0.000 A 
ATOM     12  C8  UNL     1      29.233  33.883  39.913  0.00  0.00    +0.000 A 
ATOM     13  C9  UNL     1      29.971  33.365  38.838  0.00  0.00    +0.000 A 
ATOM     14  C10 UNL     1      30.828  34.199  38.095  0.00  0.00    +0.000 A 
ATOM     15  C11 UNL     1      30.947  35.560  38.418  0.00  0.00    +0.000 A 
ATOM     16  C12 UNL     1      30.171  36.074  39.464  0.00  0.00    +0.000 A 
ATOM     17  C13 UNL     1      31.159  39.966  37.962  0.00  0.00    +0.000 C 
ATOM     18  O3  UNL     1      32.066  40.809  37.725  0.00  0.00    +0.000 OA
ATOM     19  N3  UNL     1      30.633  39.093  36.976  0.00  0.00    +0.000 N 
ATOM     20  H5  UNL     1      31.748  37.554  41.399  0.00  0.00    +0.000 HD
ATOM     21  H6  UNL     1      28.154  35.504  42.044  0.00  0.00    +0.000 HD
ENDROOT
BRANCH  19  22
ATOM     22  C14 UNL     1      31.000  39.020  35.587  0.00  0.00    +0.000 A 
ATOM     23  C15 UNL     1      31.402  37.798  35.023  0.00  0.00    +0.000 A 
ATOM     24  C16 UNL     1      31.763  37.720  33.676  0.00  0.00    +0.000 A 
ATOM     25  C17 UNL     1      31.723  38.863  32.867  0.00  0.00    +0.000 A 
ATOM     26  C18 UNL     1      32.082  38.796  31.512  0.00  0.00    +0.000 A 
ATOM     27  C19 UNL     1      32.035  39.944  30.717  0.00  0.00    +0.000 A 
ATOM     28  C20 UNL     1      31.631  41.163  31.265  0.00  0.00    +0.000 A 
ATOM     29  C21 UNL     1      31.271  41.245  32.612  0.00  0.00    +0.000 A 
ATOM     30  C22 UNL     1      31.315  40.099  33.424  0.00  0.00    +0.000 A 
ATOM     31  C23 UNL     1      30.956  40.168  34.779  0.00  0.00    +0.000 A 
ENDBRANCH  19  22
TORSDOF 1
ENDMDL
MODEL 4
REMARK VINA RESULT:    -6.999      3.539      5.760
REMARK INTER + INTRA:          -7.908
REMARK INTER:                  -7.253
REMARK INTRA:                  -0.655
REMARK UNBOUND:                -0.500
REMARK  Name = CNP0178720_1.pdb
REMARK  1 active torsions:
REMARK  status: ('A' for Active; 'I' for Inactive)
REMARK    1  A    between atoms: N3_19  and  C14_20
REMARK                            x       y       z     vdW  Elec       q    Type
REMARK                         _______ _______ _______ _____ _____    ______ ____
ROOT
ATOM      1  O1  UNL     1      18.825  36.710  36.328  0.00  0.00    +0.000 OA
ATOM      2  C1  UNL     1      19.949  36.452  35.821  0.00  0.00    +0.000 C 
ATOM      3  C2  UNL     1      20.722  37.427  34.977  0.00  0.00    +0.000 C 
ATOM      4  C3  UNL     1      21.869  36.578  34.406  0.00  0.00    +0.000 C 
ATOM      5  C4  UNL     1      23.157  37.289  34.814  0.00  0.00    +0.000 C 
ATOM      6  N1  UNL     1      22.839  38.180  35.927  0.00  0.00    +0.000 NA
ATOM      7  C5  UNL     1      21.431  38.557  35.763  0.00  0.00    +0.000 C 
ATOM      8  C6  UNL     1      21.276  39.886  35.049  0.00  0.00    +0.000 C 
ATOM      9  O2  UNL     1      21.692  40.122  33.883  0.00  0.00    +0.000 OA
ATOM     10  N2  UNL     1      20.604  40.862  35.835  0.00  0.00    +0.000 N 
ATOM     11  C7  UNL     1      20.363  40.227  37.077  0.00  0.00    +0.000 A 
ATOM     12  C8  UNL     1      19.807  40.823  38.209  0.00  0.00    +0.000 A 
ATOM     13  C9  UNL     1      19.731  40.067  39.390  0.00  0.00    +0.000 A 
ATOM     14  C10 UNL     1      20.228  38.750  39.425  0.00  0.00    +0.000 A 
ATOM     15  C11 UNL     1      20.797  38.177  38.277  0.00  0.00    +0.000 A 
ATOM     16  C12 UNL     1      20.826  38.925  37.095  0.00  0.00    +0.000 A 
ATOM     17  C13 UNL     1      21.710  35.247  35.076  0.00  0.00    +0.000 C 
ATOM     18  O3  UNL     1      22.516  34.289  34.928  0.00  0.00    +0.000 OA
ATOM     19  N3  UNL     1      20.565  35.178  35.910  0.00  0.00    +0.000 N 
ATOM     20  H5  UNL     1      23.468  39.017  35.897  0.00  0.00    +0.000 HD
ATOM     21  H6  UNL     1      20.404  41.854  35.580  0.00  0.00    +0.000 HD
ENDROOT
BRANCH  19  22
ATOM     22  C14 UNL     1      20.117  34.054  36.689  0.00  0.00    +0.000 A 
ATOM     23  C15 UNL     1      20.411  33.981  38.061  0.00  0.00    +0.000 A 
ATOM     24  C16 UNL     1      19.983  32.891  38.823  0.00  0.00    +0.000 A 
ATOM     25  C17 UNL     1      19.249  31.857  38.226  0.00  0.00    +0.000 A 
ATOM     26  C18 UNL     1      18.814  30.758  38.983  0.00  0.00    +0.000 A 
ATOM     27  C19 UNL     1      18.081  29.735  38.376  0.00  0.00    +0.000 A 
ATOM     28  C20 UNL     1      17.778  29.800  37.014  0.00  0.00    +0.000 A 
ATOM     29  C21 UNL     1      18.206  30.888  36.249  0.00  0.00    +0.000 A 
ATOM     30  C22 UNL     1      18.945  31.923  36.846  0.00  0.00    +0.000 A 
ATOM     31  C23 UNL     1      19.380  33.020  36.087  0.00  0.00    +0.000 A 
ENDBRANCH  19  22
TORSDOF 1
ENDMDL
MODEL 5
REMARK VINA RESULT:    -6.952     11.273     13.504
REMARK INTER + INTRA:          -7.858
REMARK INTER:                  -7.247
REMARK INTRA:                  -0.611
REMARK UNBOUND:                -0.500
REMARK  Name = CNP0178720_1.pdb
REMARK  1 active torsions:
REMARK  status: ('A' for Active; 'I' for Inactive)
REMARK    1  A    between atoms: N3_19  and  C14_20
REMARK                            x       y       z     vdW  Elec       q    Type
REMARK                         _______ _______ _______ _____ _____    ______ ____
ROOT
ATOM      1  O1  UNL     1      28.499  48.018  33.232  0.00  0.00    +0.000 OA
ATOM      2  C1  UNL     1      27.495  48.734  33.491  0.00  0.00    +0.000 C 
ATOM      3  C2  UNL     1      27.558  50.227  33.649  0.00  0.00    +0.000 C 
ATOM      4  C3  UNL     1      26.168  50.591  34.193  0.00  0.00    +0.000 C 
ATOM      5  C4  UNL     1      25.594  51.618  33.220  0.00  0.00    +0.000 C 
ATOM      6  N1  UNL     1      26.339  51.507  31.968  0.00  0.00    +0.000 NA
ATOM      7  C5  UNL     1      27.676  51.022  32.326  0.00  0.00    +0.000 C 
ATOM      8  C6  UNL     1      28.674  52.155  32.468  0.00  0.00    +0.000 C 
ATOM      9  O2  UNL     1      28.567  53.100  33.294  0.00  0.00    +0.000 OA
ATOM     10  N2  UNL     1      29.765  52.049  31.561  0.00  0.00    +0.000 N 
ATOM     11  C7  UNL     1      29.481  50.904  30.781  0.00  0.00    +0.000 A 
ATOM     12  C8  UNL     1      30.222  50.449  29.691  0.00  0.00    +0.000 A 
ATOM     13  C9  UNL     1      29.738  49.346  28.969  0.00  0.00    +0.000 A 
ATOM     14  C10 UNL     1      28.521  48.737  29.332  0.00  0.00    +0.000 A 
ATOM     15  C11 UNL     1      27.784  49.222  30.424  0.00  0.00    +0.000 A 
ATOM     16  C12 UNL     1      28.301  50.293  31.162  0.00  0.00    +0.000 A 
ATOM     17  C13 UNL     1      25.415  49.295  34.171  0.00  0.00    +0.000 C 
ATOM     18  O3  UNL     1      24.195  49.191  34.474  0.00  0.00    +0.000 OA
ATOM     19  N3  UNL     1      26.210  48.196  33.759  0.00  0.00    +0.000 N 
ATOM     20  H5  UNL     1      26.381  52.443  31.500  0.00  0.00    +0.000 HD
ATOM     21  H6  UNL     1      30.560  52.716  31.444  0.00  0.00    +0.000 HD
ENDROOT
BRANCH  19  22
ATOM     22  C14 UNL     1      25.804  46.821  33.634  0.00  0.00    +0.000 A 
ATOM     23  C15 UNL     1      26.182  45.880  34.605  0.00  0.00    +0.000 A 
ATOM     24  C16 UNL     1      25.796  44.543  34.489  0.00  0.00    +0.000 A 
ATOM     25  C17 UNL     1      25.019  44.125  33.400  0.00  0.00    +0.000 A 
ATOM     26  C18 UNL     1      24.623  42.784  33.274  0.00  0.00    +0.000 A 
ATOM     27  C19 UNL     1      23.847  42.381  32.184  0.00  0.00    +0.000 A 
ATOM     28  C20 UNL     1      23.460  43.310  31.215  0.00  0.00    +0.000 A 
ATOM     29  C21 UNL     1      23.847  44.648  31.328  0.00  0.00    +0.000 A 
ATOM     30  C22 UNL     1      24.629  45.066  32.417  0.00  0.00    +0.000 A 
ATOM     31  C23 UNL     1      25.024  46.407  32.542  0.00  0.00    +0.000 A 
ENDBRANCH  19  22
TORSDOF 1
ENDMDL
MODEL 6
REMARK VINA RESULT:    -6.750      2.996      6.900
REMARK INTER + INTRA:          -7.645
REMARK INTER:                  -6.957
REMARK INTRA:                  -0.688
REMARK UNBOUND:                -0.500
REMARK  Name = CNP0178720_1.pdb
REMARK  1 active torsions:
REMARK  status: ('A' for Active; 'I' for Inactive)
REMARK    1  A    between atoms: N3_19  and  C14_20
REMARK                            x       y       z     vdW  Elec       q    Type
REMARK                         _______ _______ _______ _____ _____    ______ ____
ROOT
ATOM      1  O1  UNL     1      18.585  38.154  35.062  0.00  0.00    +0.000 OA
ATOM      2  C1  UNL     1      19.136  38.593  36.106  0.00  0.00    +0.000 C 
ATOM      3  C2  UNL     1      19.409  37.747  37.318  0.00  0.00    +0.000 C 
ATOM      4  C3  UNL     1      19.844  38.769  38.380  0.00  0.00    +0.000 C 
ATOM      5  C4  UNL     1      21.220  38.312  38.860  0.00  0.00    +0.000 C 
ATOM      6  N1  UNL     1      21.766  37.411  37.848  0.00  0.00    +0.000 NA
ATOM      7  C5  UNL     1      20.614  36.785  37.190  0.00  0.00    +0.000 C 
ATOM      8  C6  UNL     1      20.285  35.429  37.784  0.00  0.00    +0.000 C 
ATOM      9  O2  UNL     1      19.967  35.237  38.988  0.00  0.00    +0.000 OA
ATOM     10  N2  UNL     1      20.373  34.373  36.836  0.00  0.00    +0.000 N 
ATOM     11  C7  UNL     1      20.810  34.990  35.640  0.00  0.00    +0.000 A 
ATOM     12  C8  UNL     1      21.132  34.339  34.450  0.00  0.00    +0.000 A 
ATOM     13  C9  UNL     1      21.645  35.103  33.390  0.00  0.00    +0.000 A 
ATOM     14  C10 UNL     1      21.848  36.488  33.544  0.00  0.00    +0.000 A 
ATOM     15  C11 UNL     1      21.531  37.120  34.757  0.00  0.00    +0.000 A 
ATOM     16  C12 UNL     1      20.979  36.354  35.790  0.00  0.00    +0.000 A 
ATOM     17  C13 UNL     1      19.898  40.069  37.637  0.00  0.00    +0.000 C 
ATOM     18  O3  UNL     1      20.296  41.151  38.149  0.00  0.00    +0.000 OA
ATOM     19  N3  UNL     1      19.471  39.959  36.289  0.00  0.00    +0.000 N 
ATOM     20  H5  UNL     1      22.382  36.699  38.307  0.00  0.00    +0.000 HD
ATOM     21  H6  UNL     1      20.223  33.354  37.006  0.00  0.00    +0.000 HD
ENDROOT
BRANCH  19  22
ATOM     22  C14 UNL     1      19.394  41.007  35.307  0.00  0.00    +0.000 A 
ATOM     23  C15 UNL     1      18.224  41.774  35.179  0.00  0.00    +0.000 A 
ATOM     24  C16 UNL     1      18.140  42.791  34.226  0.00  0.00    +0.000 A 
ATOM     25  C17 UNL     1      19.228  43.063  33.386  0.00  0.00    +0.000 A 
ATOM     26  C18 UNL     1      19.155  44.084  32.426  0.00  0.00    +0.000 A 
ATOM     27  C19 UNL     1      20.248  44.345  31.596  0.00  0.00    +0.000 A 
ATOM     28  C20 UNL     1      21.419  43.593  31.717  0.00  0.00    +0.000 A 
ATOM     29  C21 UNL     1      21.506  42.574  32.669  0.00  0.00    +0.000 A 
ATOM     30  C22 UNL     1      20.413  42.299  33.509  0.00  0.00    +0.000 A 
ATOM     31  C23 UNL     1      20.488  41.278  34.468  0.00  0.00    +0.000 A 
ENDBRANCH  19  22
TORSDOF 1
ENDMDL
MODEL 7
REMARK VINA RESULT:    -6.701      2.844      7.335
REMARK INTER + INTRA:          -7.593
REMARK INTER:                  -6.906
REMARK INTRA:                  -0.688
REMARK UNBOUND:                -0.500
REMARK  Name = CNP0178720_1.pdb
REMARK  1 active torsions:
REMARK  status: ('A' for Active; 'I' for Inactive)
REMARK    1  A    between atoms: N3_19  and  C14_20
REMARK                            x       y       z     vdW  Elec       q    Type
REMARK                         _______ _______ _______ _____ _____    ______ ____
ROOT
ATOM      1  O1  UNL     1      20.925  36.320  34.018  0.00  0.00    +0.000 OA
ATOM      2  C1  UNL     1      20.622  36.518  35.224  0.00  0.00    +0.000 C 
ATOM      3  C2  UNL     1      21.475  36.072  36.378  0.00  0.00    +0.000 C 
ATOM      4  C3  UNL     1      20.579  36.313  37.603  0.00  0.00    +0.000 C 
ATOM      5  C4  UNL     1      21.377  37.226  38.531  0.00  0.00    +0.000 C 
ATOM      6  N1  UNL     1      22.420  37.866  37.734  0.00  0.00    +0.000 NA
ATOM      7  C5  UNL     1      22.730  36.939  36.641  0.00  0.00    +0.000 C 
ATOM      8  C6  UNL     1      23.929  36.065  36.957  0.00  0.00    +0.000 C 
ATOM      9  O2  UNL     1      23.994  35.268  37.931  0.00  0.00    +0.000 OA
ATOM     10  N2  UNL     1      24.996  36.234  36.032  0.00  0.00    +0.000 N 
ATOM     11  C7  UNL     1      24.555  37.244  35.145  0.00  0.00    +0.000 A 
ATOM     12  C8  UNL     1      25.302  37.818  34.118  0.00  0.00    +0.000 A 
ATOM     13  C9  UNL     1      24.736  38.880  33.395  0.00  0.00    +0.000 A 
ATOM     14  C10 UNL     1      23.453  39.361  33.723  0.00  0.00    +0.000 A 
ATOM     15  C11 UNL     1      22.725  38.776  34.771  0.00  0.00    +0.000 A 
ATOM     16  C12 UNL     1      23.283  37.689  35.454  0.00  0.00    +0.000 A 
ATOM     17  C13 UNL     1      19.363  36.986  37.041  0.00  0.00    +0.000 C 
ATOM     18  O3  UNL     1      18.415  37.421  37.750  0.00  0.00    +0.000 OA
ATOM     19  N3  UNL     1      19.393  37.099  35.628  0.00  0.00    +0.000 N 
ATOM     20  H5  UNL     1      23.259  38.049  38.334  0.00  0.00    +0.000 HD
ATOM     21  H6  UNL     1      25.932  35.771  36.052  0.00  0.00    +0.000 HD
ENDROOT
BRANCH  19  22
ATOM     22  C14 UNL     1      18.391  37.683  34.776  0.00  0.00    +0.000 A 
ATOM     23  C15 UNL     1      17.343  36.895  34.273  0.00  0.00    +0.000 A 
ATOM     24  C16 UNL     1      16.368  37.453  33.442  0.00  0.00    +0.000 A 
ATOM     25  C17 UNL     1      16.422  38.812  33.105  0.00  0.00    +0.000 A 
ATOM     26  C18 UNL     1      15.447  39.383  32.273  0.00  0.00    +0.000 A 
ATOM     27  C19 UNL     1      15.513  40.740  31.946  0.00  0.00    +0.000 A 
ATOM     28  C20 UNL     1      16.547  41.535  32.446  0.00  0.00    +0.000 A 
ATOM     29  C21 UNL     1      17.524  40.979  33.276  0.00  0.00    +0.000 A 
ATOM     30  C22 UNL     1      17.472  39.616  33.610  0.00  0.00    +0.000 A 
ATOM     31  C23 UNL     1      18.448  39.046  34.443  0.00  0.00    +0.000 A 
ENDBRANCH  19  22
TORSDOF 1
ENDMDL
MODEL 8
REMARK VINA RESULT:    -6.700     12.563     15.890
REMARK INTER + INTRA:          -7.592
REMARK INTER:                  -6.922
REMARK INTRA:                  -0.670
REMARK UNBOUND:                -0.500
REMARK  Name = CNP0178720_1.pdb
REMARK  1 active torsions:
REMARK  status: ('A' for Active; 'I' for Inactive)
REMARK    1  A    between atoms: N3_19  and  C14_20
REMARK                            x       y       z     vdW  Elec       q    Type
REMARK                         _______ _______ _______ _____ _____    ______ ____
ROOT
ATOM      1  O1  UNL     1      25.776  51.610  35.130  0.00  0.00    +0.000 OA
ATOM      2  C1  UNL     1      26.141  52.182  34.068  0.00  0.00    +0.000 C 
ATOM      3  C2  UNL     1      27.491  51.983  33.440  0.00  0.00    +0.000 C 
ATOM      4  C3  UNL     1      27.540  53.059  32.343  0.00  0.00    +0.000 C 
ATOM      5  C4  UNL     1      27.819  52.313  31.040  0.00  0.00    +0.000 C 
ATOM      6  N1  UNL     1      27.476  50.909  31.250  0.00  0.00    +0.000 NA
ATOM      7  C5  UNL     1      27.671  50.647  32.680  0.00  0.00    +0.000 C 
ATOM      8  C6  UNL     1      29.032  50.044  32.969  0.00  0.00    +0.000 C 
ATOM      9  O2  UNL     1      30.130  50.605  32.708  0.00  0.00    +0.000 OA
ATOM     10  N2  UNL     1      28.952  48.759  33.573  0.00  0.00    +0.000 N 
ATOM     11  C7  UNL     1      27.569  48.471  33.637  0.00  0.00    +0.000 A 
ATOM     12  C8  UNL     1      26.998  47.275  34.069  0.00  0.00    +0.000 A 
ATOM     13  C9  UNL     1      25.606  47.127  33.973  0.00  0.00    +0.000 A 
ATOM     14  C10 UNL     1      24.816  48.159  33.429  0.00  0.00    +0.000 A 
ATOM     15  C11 UNL     1      25.414  49.349  32.986  0.00  0.00    +0.000 A 
ATOM     16  C12 UNL     1      26.798  49.500  33.129  0.00  0.00    +0.000 A 
ATOM     17  C13 UNL     1      26.174  53.674  32.371  0.00  0.00    +0.000 C 
ATOM     18  O3  UNL     1      25.787  54.554  31.556  0.00  0.00    +0.000 OA
ATOM     19  N3  UNL     1      25.350  53.153  33.402  0.00  0.00    +0.000 N 
ATOM     20  H5  UNL     1      28.095  50.304  30.659  0.00  0.00    +0.000 HD
ATOM     21  H6  UNL     1      29.744  48.133  33.838  0.00  0.00    +0.000 HD
ENDROOT
BRANCH  19  22
ATOM     22  C14 UNL     1      23.995  53.526  33.710  0.00  0.00    +0.000 A 
ATOM     23  C15 UNL     1      23.722  54.757  34.327  0.00  0.00    +0.000 A 
ATOM     24  C16 UNL     1      22.409  55.125  34.632  0.00  0.00    +0.000 A 
ATOM     25  C17 UNL     1      21.346  54.266  34.322  0.00  0.00    +0.000 A 
ATOM     26  C18 UNL     1      20.023  54.626  34.623  0.00  0.00    +0.000 A 
ATOM     27  C19 UNL     1      18.972  53.761  34.306  0.00  0.00    +0.000 A 
ATOM     28  C20 UNL     1      19.231  52.536  33.687  0.00  0.00    +0.000 A 
ATOM     29  C21 UNL     1      20.543  52.166  33.381  0.00  0.00    +0.000 A 
ATOM     30  C22 UNL     1      21.610  53.024  33.696  0.00  0.00    +0.000 A 
ATOM     31  C23 UNL     1      22.932  52.663  33.394  0.00  0.00    +0.000 A 
ENDBRANCH  19  22
TORSDOF 1
ENDMDL
MODEL 9
REMARK VINA RESULT:    -6.645      2.979      6.486
REMARK INTER + INTRA:          -7.534
REMARK INTER:                  -6.883
REMARK INTRA:                  -0.651
REMARK UNBOUND:                -0.500
REMARK  Name = CNP0178720_1.pdb
REMARK  1 active torsions:
REMARK  status: ('A' for Active; 'I' for Inactive)
REMARK    1  A    between atoms: N3_19  and  C14_20
REMARK                            x       y       z     vdW  Elec       q    Type
REMARK                         _______ _______ _______ _____ _____    ______ ____
ROOT
ATOM      1  O1  UNL     1      17.533  37.177  35.513  0.00  0.00    +0.000 OA
ATOM      2  C1  UNL     1      18.457  37.375  34.680  0.00  0.00    +0.000 C 
ATOM      3  C2  UNL     1      19.193  38.678  34.550  0.00  0.00    +0.000 C 
ATOM      4  C3  UNL     1      20.018  38.501  33.265  0.00  0.00    +0.000 C 
ATOM      5  C4  UNL     1      21.470  38.750  33.664  0.00  0.00    +0.000 C 
ATOM      6  N1  UNL     1      21.565  38.598  35.114  0.00  0.00    +0.000 NA
ATOM      7  C5  UNL     1      20.247  38.949  35.652  0.00  0.00    +0.000 C 
ATOM      8  C6  UNL     1      20.184  40.393  36.111  0.00  0.00    +0.000 C 
ATOM      9  O2  UNL     1      20.376  41.388  35.362  0.00  0.00    +0.000 OA
ATOM     10  N2  UNL     1      19.885  40.522  37.495  0.00  0.00    +0.000 N 
ATOM     11  C7  UNL     1      19.806  39.194  37.977  0.00  0.00    +0.000 A 
ATOM     12  C8  UNL     1      19.623  38.812  39.305  0.00  0.00    +0.000 A 
ATOM     13  C9  UNL     1      19.667  37.444  39.617  0.00  0.00    +0.000 A 
ATOM     14  C10 UNL     1      19.914  36.491  38.610  0.00  0.00    +0.000 A 
ATOM     15  C11 UNL     1      20.110  36.901  37.281  0.00  0.00    +0.000 A 
ATOM     16  C12 UNL     1      20.019  38.264  36.977  0.00  0.00    +0.000 A 
ATOM     17  C13 UNL     1      19.768  37.078  32.864  0.00  0.00    +0.000 C 
ATOM     18  O3  UNL     1      20.337  36.518  31.889  0.00  0.00    +0.000 OA
ATOM     19  N3  UNL     1      18.836  36.418  33.704  0.00  0.00    +0.000 N 
ATOM     20  H5  UNL     1      22.314  39.229  35.485  0.00  0.00    +0.000 HD
ATOM     21  H6  UNL     1      19.817  41.404  38.050  0.00  0.00    +0.000 HD
ENDROOT
BRANCH  19  22
ATOM     22  C14 UNL     1      18.371  35.060  33.597  0.00  0.00    +0.000 A 
ATOM     23  C15 UNL     1      18.917  34.058  34.415  0.00  0.00    +0.000 A 
ATOM     24  C16 UNL     1      18.474  32.737  34.315  0.00  0.00    +0.000 A 
ATOM     25  C17 UNL     1      17.471  32.397  33.396  0.00  0.00    +0.000 A 
ATOM     26  C18 UNL     1      17.017  31.074  33.288  0.00  0.00    +0.000 A 
ATOM     27  C19 UNL     1      16.016  30.749  32.369  0.00  0.00    +0.000 A 
ATOM     28  C20 UNL     1      15.461  31.739  31.555  0.00  0.00    +0.000 A 
ATOM     29  C21 UNL     1      15.904  33.060  31.652  0.00  0.00    +0.000 A 
ATOM     30  C22 UNL     1      16.911  33.400  32.570  0.00  0.00    +0.000 A 
ATOM     31  C23 UNL     1      17.364  34.725  32.677  0.00  0.00    +0.000 A 
ENDBRANCH  19  22
TORSDOF 1
ENDMDL
MODEL 10
REMARK VINA RESULT:    -6.463      9.107     12.733
REMARK INTER + INTRA:          -7.341
REMARK INTER:                  -6.755
REMARK INTRA:                  -0.586
REMARK UNBOUND:                -0.500
REMARK  Name = CNP0178720_1.pdb
REMARK  1 active torsions:
REMARK  status: ('A' for Active; 'I' for Inactive)
REMARK    1  A    between atoms: N3_19  and  C14_20
REMARK                            x       y       z     vdW  Elec       q    Type
REMARK                         _______ _______ _______ _____ _____    ______ ____
ROOT
ATOM      1  O1  UNL     1      28.521  38.674  39.627  0.00  0.00    +0.000 OA
ATOM      2  C1  UNL     1      29.577  38.000  39.758  0.00  0.00    +0.000 C 
ATOM      3  C2  UNL     1      29.786  36.987  40.848  0.00  0.00    +0.000 C 
ATOM      4  C3  UNL     1      31.277  36.635  40.734  0.00  0.00    +0.000 C 
ATOM      5  C4  UNL     1      31.335  35.121  40.548  0.00  0.00    +0.000 C 
ATOM      6  N1  UNL     1      30.018  34.678  40.099  0.00  0.00    +0.000 NA
ATOM      7  C5  UNL     1      29.053  35.639  40.641  0.00  0.00    +0.000 C 
ATOM      8  C6  UNL     1      28.437  35.157  41.941  0.00  0.00    +0.000 C 
ATOM      9  O2  UNL     1      29.091  34.904  42.988  0.00  0.00    +0.000 OA
ATOM     10  N2  UNL     1      27.024  35.014  41.865  0.00  0.00    +0.000 N 
ATOM     11  C7  UNL     1      26.696  35.333  40.526  0.00  0.00    +0.000 A 
ATOM     12  C8  UNL     1      25.431  35.244  39.947  0.00  0.00    +0.000 A 
ATOM     13  C9  UNL     1      25.306  35.508  38.574  0.00  0.00    +0.000 A 
ATOM     14  C10 UNL     1      26.441  35.831  37.806  0.00  0.00    +0.000 A 
ATOM     15  C11 UNL     1      27.708  35.901  38.407  0.00  0.00    +0.000 A 
ATOM     16  C12 UNL     1      27.811  35.679  39.785  0.00  0.00    +0.000 A 
ATOM     17  C13 UNL     1      31.737  37.381  39.518  0.00  0.00    +0.000 C 
ATOM     18  O3  UNL     1      32.900  37.288  39.039  0.00  0.00    +0.000 OA
ATOM     19  N3  UNL     1      30.725  38.194  38.947  0.00  0.00    +0.000 N 
ATOM     20  H5  UNL     1      29.835  33.708  40.450  0.00  0.00    +0.000 HD
ATOM     21  H6  UNL     1      26.381  34.672  42.612  0.00  0.00    +0.000 HD
ENDROOT
BRANCH  19  22
ATOM     22  C14 UNL     1      30.831  39.038  37.787  0.00  0.00    +0.000 A 
ATOM     23  C15 UNL     1      30.894  40.434  37.930  0.00  0.00    +0.000 A 
ATOM     24  C16 UNL     1      30.994  41.260  36.808  0.00  0.00    +0.000 A 
ATOM     25  C17 UNL     1      31.038  40.703  35.523  0.00  0.00    +0.000 A 
ATOM     26  C18 UNL     1      31.140  41.525  34.389  0.00  0.00    +0.000 A 
ATOM     27  C19 UNL     1      31.184  40.956  33.113  0.00  0.00    +0.000 A 
ATOM     28  C20 UNL     1      31.128  39.568  32.959  0.00  0.00    +0.000 A 
ATOM     29  C21 UNL     1      31.027  38.739  34.080  0.00  0.00    +0.000 A 
ATOM     30  C22 UNL     1      30.979  39.298  35.368  0.00  0.00    +0.000 A 
ATOM     31  C23 UNL     1      30.877  38.475  36.500  0.00  0.00    +0.000 A 
ENDBRANCH  19  22
TORSDOF 1
ENDMDL
