MODEL 1
REMARK VINA RESULT:    -7.809      0.000      0.000
REMARK INTER + INTRA:         -14.022
REMARK INTER:                 -11.005
REMARK INTRA:                  -3.018
REMARK UNBOUND:                -3.018
REMARK  Name = CNP0031723_0.pdb
REMARK  9 active torsions:
REMARK  status: ('A' for Active; 'I' for Inactive)
REMARK    1  A    between atoms: C1_1  and  C2_2
REMARK    2  A    between atoms: C3_3  and  N1_4
REMARK    3  A    between atoms: N1_4  and  N2_5
REMARK    4  A    between atoms: C4_6  and  C5_7
REMARK    5  A    between atoms: C4_6  and  S1_19
REMARK    6  A    between atoms: C5_7  and  C6_9
REMARK    7  A    between atoms: S1_19  and  C16_22
REMARK    8  A    between atoms: N3_30  and  C23_31
REMARK    9  A    between atoms: N4_37  and  C29_38
REMARK                            x       y       z     vdW  Elec       q    Type
REMARK                         _______ _______ _______ _____ _____    ______ ____
ROOT
ATOM      1  N2  UNL     1      59.861  53.606  70.542  0.00  0.00    +0.000 NA
ATOM      2  C4  UNL     1      59.531  54.764  70.042  0.00  0.00    +0.000 C 
ENDROOT
BRANCH   2   3
ATOM      3  S1  UNL     1      57.842  55.310  69.987  0.00  0.00    +0.000 S 
ATOM      4  O2  UNL     1      57.697  56.492  69.068  0.00  0.00    +0.000 OA
ATOM      5  O3  UNL     1      56.967  54.210  69.451  0.00  0.00    +0.000 OA
BRANCH   3   6
ATOM      6  C16 UNL     1      57.335  55.779  71.608  0.00  0.00    +0.000 A 
ATOM      7  C17 UNL     1      56.489  54.933  72.338  0.00  0.00    +0.000 A 
ATOM      8  C18 UNL     1      56.067  55.296  73.621  0.00  0.00    +0.000 A 
ATOM      9  C19 UNL     1      56.489  56.506  74.181  0.00  0.00    +0.000 A 
ATOM     10  C20 UNL     1      57.331  57.355  73.455  0.00  0.00    +0.000 A 
ATOM     11  C21 UNL     1      57.756  56.994  72.172  0.00  0.00    +0.000 A 
ENDBRANCH   3   6
ENDBRANCH   2   3
BRANCH   1  12
ATOM     12  N1  UNL     1      58.970  52.716  71.167  0.00  0.00    +0.000 N 
ATOM     13  H4  UNL     1      58.081  52.441  70.694  0.00  0.00    +0.000 HD
BRANCH  12  16
ATOM     14  C1  UNL     1      58.857  49.776  72.267  0.00  0.00    +0.000 C 
ATOM     15  C2  UNL     1      59.159  51.026  73.040  0.00  0.00    +0.000 A 
ATOM     16  C3  UNL     1      59.189  52.314  72.524  0.00  0.00    +0.000 A 
ATOM     17  C22 UNL     1      59.589  53.111  73.576  0.00  0.00    +0.000 A 
ATOM     18  O4  UNL     1      59.763  54.358  73.536  0.00  0.00    +0.000 OA
ATOM     19  N3  UNL     1      59.791  52.345  74.668  0.00  0.00    +0.000 N 
ATOM     20  N4  UNL     1      59.556  51.075  74.338  0.00  0.00    +0.000 N 
ATOM     21  C29 UNL     1      59.688  49.932  75.243  0.00  0.00    +0.000 C 
BRANCH  19  22
ATOM     22  C23 UNL     1      60.290  52.808  75.937  0.00  0.00    +0.000 A 
ATOM     23  C24 UNL     1      59.406  53.266  76.930  0.00  0.00    +0.000 A 
ATOM     24  C25 UNL     1      59.898  53.691  78.169  0.00  0.00    +0.000 A 
ATOM     25  C26 UNL     1      61.273  53.668  78.423  0.00  0.00    +0.000 A 
ATOM     26  C27 UNL     1      62.160  53.230  77.436  0.00  0.00    +0.000 A 
ATOM     27  C28 UNL     1      61.671  52.805  76.194  0.00  0.00    +0.000 A 
ENDBRANCH  19  22
ENDBRANCH  12  16
ENDBRANCH   1  12
BRANCH   2  28
ATOM     28  C5  UNL     1      60.609  55.657  69.555  0.00  0.00    +0.000 C 
ATOM     29  O1  UNL     1      61.057  55.528  68.385  0.00  0.00    +0.000 OA
BRANCH  28  30
ATOM     30  C6  UNL     1      61.137  56.750  70.402  0.00  0.00    +0.000 A 
ATOM     31  C7  UNL     1      60.633  58.048  70.218  0.00  0.00    +0.000 A 
ATOM     32  C8  UNL     1      61.100  59.112  70.988  0.00  0.00    +0.000 A 
ATOM     33  C9  UNL     1      62.071  58.898  71.966  0.00  0.00    +0.000 A 
ATOM     34  C10 UNL     1      62.591  57.612  72.180  0.00  0.00    +0.000 A 
ATOM     35  C11 UNL     1      63.572  57.403  73.163  0.00  0.00    +0.000 A 
ATOM     36  C12 UNL     1      64.105  56.128  73.367  0.00  0.00    +0.000 A 
ATOM     37  C13 UNL     1      63.667  55.053  72.593  0.00  0.00    +0.000 A 
ATOM     38  C14 UNL     1      62.693  55.246  71.608  0.00  0.00    +0.000 A 
ATOM     39  C15 UNL     1      62.130  56.522  71.392  0.00  0.00    +0.000 A 
ENDBRANCH  28  30
ENDBRANCH   2  28
TORSDOF 7
ENDMDL
MODEL 2
REMARK VINA RESULT:    -7.541      3.307      7.247
REMARK INTER + INTRA:         -13.645
REMARK INTER:                 -10.196
REMARK INTRA:                  -3.449
REMARK UNBOUND:                -3.018
REMARK  Name = CNP0031723_0.pdb
REMARK  9 active torsions:
REMARK  status: ('A' for Active; 'I' for Inactive)
REMARK    1  A    between atoms: C1_1  and  C2_2
REMARK    2  A    between atoms: C3_3  and  N1_4
REMARK    3  A    between atoms: N1_4  and  N2_5
REMARK    4  A    between atoms: C4_6  and  C5_7
REMARK    5  A    between atoms: C4_6  and  S1_19
REMARK    6  A    between atoms: C5_7  and  C6_9
REMARK    7  A    between atoms: S1_19  and  C16_22
REMARK    8  A    between atoms: N3_30  and  C23_31
REMARK    9  A    between atoms: N4_37  and  C29_38
REMARK                            x       y       z     vdW  Elec       q    Type
REMARK                         _______ _______ _______ _____ _____    ______ ____
ROOT
ATOM      1  N2  UNL     1      57.284  55.652  71.193  0.00  0.00    +0.000 NA
ATOM      2  C4  UNL     1      58.103  54.870  71.839  0.00  0.00    +0.000 C 
ENDROOT
BRANCH   2   3
ATOM      3  S1  UNL     1      58.391  53.194  71.328  0.00  0.00    +0.000 S 
ATOM      4  O2  UNL     1      58.726  52.329  72.512  0.00  0.00    +0.000 OA
ATOM      5  O3  UNL     1      57.148  52.631  70.695  0.00  0.00    +0.000 OA
BRANCH   3   6
ATOM      6  C16 UNL     1      59.741  53.161  70.196  0.00  0.00    +0.000 A 
ATOM      7  C17 UNL     1      60.214  51.928  69.723  0.00  0.00    +0.000 A 
ATOM      8  C18 UNL     1      61.292  51.883  68.833  0.00  0.00    +0.000 A 
ATOM      9  C19 UNL     1      61.903  53.068  68.411  0.00  0.00    +0.000 A 
ATOM     10  C20 UNL     1      61.436  54.300  68.883  0.00  0.00    +0.000 A 
ATOM     11  C21 UNL     1      60.356  54.349  69.771  0.00  0.00    +0.000 A 
ENDBRANCH   3   6
ENDBRANCH   2   3
BRANCH   1  12
ATOM     12  N1  UNL     1      56.624  55.315  69.998  0.00  0.00    +0.000 N 
ATOM     13  H4  UNL     1      55.735  54.769  70.023  0.00  0.00    +0.000 HD
BRANCH  12  16
ATOM     14  C1  UNL     1      58.075  57.969  69.150  0.00  0.00    +0.000 C 
ATOM     15  C2  UNL     1      57.908  56.720  68.333  0.00  0.00    +0.000 A 
ATOM     16  C3  UNL     1      57.250  55.567  68.735  0.00  0.00    +0.000 A 
ATOM     17  C22 UNL     1      57.428  54.675  67.700  0.00  0.00    +0.000 A 
ATOM     18  O4  UNL     1      57.002  53.489  67.661  0.00  0.00    +0.000 OA
ATOM     19  N3  UNL     1      58.157  55.257  66.725  0.00  0.00    +0.000 N 
ATOM     20  N4  UNL     1      58.472  56.491  67.118  0.00  0.00    +0.000 N 
ATOM     21  C29 UNL     1      59.277  57.440  66.348  0.00  0.00    +0.000 C 
BRANCH  19  22
ATOM     22  C23 UNL     1      58.614  54.613  65.520  0.00  0.00    +0.000 A 
ATOM     23  C24 UNL     1      59.782  53.831  65.526  0.00  0.00    +0.000 A 
ATOM     24  C25 UNL     1      60.205  53.189  64.356  0.00  0.00    +0.000 A 
ATOM     25  C26 UNL     1      59.470  53.327  63.175  0.00  0.00    +0.000 A 
ATOM     26  C27 UNL     1      58.317  54.117  63.157  0.00  0.00    +0.000 A 
ATOM     27  C28 UNL     1      57.891  54.762  64.324  0.00  0.00    +0.000 A 
ENDBRANCH  19  22
ENDBRANCH  12  16
ENDBRANCH   1  12
BRANCH   2  28
ATOM     28  C5  UNL     1      58.841  55.423  72.999  0.00  0.00    +0.000 C 
ATOM     29  O1  UNL     1      58.484  55.135  74.172  0.00  0.00    +0.000 OA
BRANCH  28  30
ATOM     30  C6  UNL     1      60.041  56.268  72.808  0.00  0.00    +0.000 A 
ATOM     31  C7  UNL     1      59.866  57.626  72.495  0.00  0.00    +0.000 A 
ATOM     32  C8  UNL     1      60.965  58.462  72.302  0.00  0.00    +0.000 A 
ATOM     33  C9  UNL     1      62.260  57.962  72.431  0.00  0.00    +0.000 A 
ATOM     34  C10 UNL     1      62.469  56.611  72.749  0.00  0.00    +0.000 A 
ATOM     35  C11 UNL     1      63.776  56.111  72.873  0.00  0.00    +0.000 A 
ATOM     36  C12 UNL     1      63.989  54.763  73.172  0.00  0.00    +0.000 A 
ATOM     37  C13 UNL     1      62.904  53.904  73.349  0.00  0.00    +0.000 A 
ATOM     38  C14 UNL     1      61.598  54.386  73.226  0.00  0.00    +0.000 A 
ATOM     39  C15 UNL     1      61.357  55.747  72.936  0.00  0.00    +0.000 A 
ENDBRANCH  28  30
ENDBRANCH   2  28
TORSDOF 7
ENDMDL
MODEL 3
REMARK VINA RESULT:    -7.453      2.894      8.243
REMARK INTER + INTRA:         -13.520
REMARK INTER:                 -11.623
REMARK INTRA:                  -1.897
REMARK UNBOUND:                -3.018
REMARK  Name = CNP0031723_0.pdb
REMARK  9 active torsions:
REMARK  status: ('A' for Active; 'I' for Inactive)
REMARK    1  A    between atoms: C1_1  and  C2_2
REMARK    2  A    between atoms: C3_3  and  N1_4
REMARK    3  A    between atoms: N1_4  and  N2_5
REMARK    4  A    between atoms: C4_6  and  C5_7
REMARK    5  A    between atoms: C4_6  and  S1_19
REMARK    6  A    between atoms: C5_7  and  C6_9
REMARK    7  A    between atoms: S1_19  and  C16_22
REMARK    8  A    between atoms: N3_30  and  C23_31
REMARK    9  A    between atoms: N4_37  and  C29_38
REMARK                            x       y       z     vdW  Elec       q    Type
REMARK                         _______ _______ _______ _____ _____    ______ ____
ROOT
ATOM      1  N2  UNL     1      60.631  54.984  73.914  0.00  0.00    +0.000 NA
ATOM      2  C4  UNL     1      61.327  54.021  74.450  0.00  0.00    +0.000 C 
ENDROOT
BRANCH   2   3
ATOM      3  S1  UNL     1      63.082  53.889  74.208  0.00  0.00    +0.000 S 
ATOM      4  O2  UNL     1      63.388  53.363  72.833  0.00  0.00    +0.000 OA
ATOM      5  O3  UNL     1      63.717  55.248  74.324  0.00  0.00    +0.000 OA
BRANCH   3   6
ATOM      6  C16 UNL     1      63.747  52.782  75.406  0.00  0.00    +0.000 A 
ATOM      7  C17 UNL     1      64.052  53.257  76.689  0.00  0.00    +0.000 A 
ATOM      8  C18 UNL     1      64.592  52.395  77.649  0.00  0.00    +0.000 A 
ATOM      9  C19 UNL     1      64.830  51.054  77.331  0.00  0.00    +0.000 A 
ATOM     10  C20 UNL     1      64.530  50.576  76.051  0.00  0.00    +0.000 A 
ATOM     11  C21 UNL     1      63.987  51.436  75.090  0.00  0.00    +0.000 A 
ENDBRANCH   3   6
ENDBRANCH   2   3
BRANCH   1  12
ATOM     12  N1  UNL     1      61.173  56.057  73.184  0.00  0.00    +0.000 N 
ATOM     13  H4  UNL     1      61.911  56.663  73.607  0.00  0.00    +0.000 HD
BRANCH  12  16
ATOM     14  C1  UNL     1      61.014  58.970  72.020  0.00  0.00    +0.000 C 
ATOM     15  C2  UNL     1      60.525  57.704  71.378  0.00  0.00    +0.000 A 
ATOM     16  C3  UNL     1      60.601  56.432  71.927  0.00  0.00    +0.000 A 
ATOM     17  C22 UNL     1      60.111  55.592  70.950  0.00  0.00    +0.000 A 
ATOM     18  O4  UNL     1      60.017  54.338  71.030  0.00  0.00    +0.000 OA
ATOM     19  N3  UNL     1      59.759  56.318  69.868  0.00  0.00    +0.000 N 
ATOM     20  N4  UNL     1      60.034  57.599  70.116  0.00  0.00    +0.000 N 
ATOM     21  C29 UNL     1      59.818  58.702  69.178  0.00  0.00    +0.000 C 
BRANCH  19  22
ATOM     22  C23 UNL     1      59.280  55.784  68.619  0.00  0.00    +0.000 A 
ATOM     23  C24 UNL     1      57.905  55.592  68.403  0.00  0.00    +0.000 A 
ATOM     24  C25 UNL     1      57.448  55.096  67.176  0.00  0.00    +0.000 A 
ATOM     25  C26 UNL     1      58.358  54.784  66.162  0.00  0.00    +0.000 A 
ATOM     26  C27 UNL     1      59.729  54.956  66.375  0.00  0.00    +0.000 A 
ATOM     27  C28 UNL     1      60.190  55.451  67.601  0.00  0.00    +0.000 A 
ENDBRANCH  19  22
ENDBRANCH  12  16
ENDBRANCH   1  12
BRANCH   2  28
ATOM     28  C5  UNL     1      60.629  53.045  75.321  0.00  0.00    +0.000 C 
ATOM     29  O1  UNL     1      60.515  51.843  74.961  0.00  0.00    +0.000 OA
BRANCH  28  30
ATOM     30  C6  UNL     1      60.109  53.442  76.649  0.00  0.00    +0.000 A 
ATOM     31  C7  UNL     1      60.977  53.398  77.753  0.00  0.00    +0.000 A 
ATOM     32  C8  UNL     1      60.534  53.758  79.025  0.00  0.00    +0.000 A 
ATOM     33  C9  UNL     1      59.218  54.182  79.216  0.00  0.00    +0.000 A 
ATOM     34  C10 UNL     1      58.328  54.243  78.133  0.00  0.00    +0.000 A 
ATOM     35  C11 UNL     1      57.004  54.665  78.333  0.00  0.00    +0.000 A 
ATOM     36  C12 UNL     1      56.109  54.710  77.261  0.00  0.00    +0.000 A 
ATOM     37  C13 UNL     1      56.526  54.334  75.984  0.00  0.00    +0.000 A 
ATOM     38  C14 UNL     1      57.840  53.908  75.770  0.00  0.00    +0.000 A 
ATOM     39  C15 UNL     1      58.766  53.866  76.835  0.00  0.00    +0.000 A 
ENDBRANCH  28  30
ENDBRANCH   2  28
TORSDOF 7
ENDMDL
MODEL 4
REMARK VINA RESULT:    -7.400      1.960      3.156
REMARK INTER + INTRA:         -13.446
REMARK INTER:                 -11.109
REMARK INTRA:                  -2.337
REMARK UNBOUND:                -3.018
REMARK  Name = CNP0031723_0.pdb
REMARK  9 active torsions:
REMARK  status: ('A' for Active; 'I' for Inactive)
REMARK    1  A    between atoms: C1_1  and  C2_2
REMARK    2  A    between atoms: C3_3  and  N1_4
REMARK    3  A    between atoms: N1_4  and  N2_5
REMARK    4  A    between atoms: C4_6  and  C5_7
REMARK    5  A    between atoms: C4_6  and  S1_19
REMARK    6  A    between atoms: C5_7  and  C6_9
REMARK    7  A    between atoms: S1_19  and  C16_22
REMARK    8  A    between atoms: N3_30  and  C23_31
REMARK    9  A    between atoms: N4_37  and  C29_38
REMARK                            x       y       z     vdW  Elec       q    Type
REMARK                         _______ _______ _______ _____ _____    ______ ____
ROOT
ATOM      1  N2  UNL     1      59.837  53.657  72.186  0.00  0.00    +0.000 NA
ATOM      2  C4  UNL     1      59.614  54.491  71.209  0.00  0.00    +0.000 C 
ENDROOT
BRANCH   2   3
ATOM      3  S1  UNL     1      57.968  54.983  70.759  0.00  0.00    +0.000 S 
ATOM      4  O2  UNL     1      56.980  53.902  71.103  0.00  0.00    +0.000 OA
ATOM      5  O3  UNL     1      57.575  56.216  71.526  0.00  0.00    +0.000 OA
BRANCH   3   6
ATOM      6  C16 UNL     1      57.909  55.280  69.024  0.00  0.00    +0.000 A 
ATOM      7  C17 UNL     1      57.695  54.207  68.147  0.00  0.00    +0.000 A 
ATOM      8  C18 UNL     1      57.657  54.423  66.766  0.00  0.00    +0.000 A 
ATOM      9  C19 UNL     1      57.834  55.713  66.253  0.00  0.00    +0.000 A 
ATOM     10  C20 UNL     1      58.052  56.786  67.124  0.00  0.00    +0.000 A 
ATOM     11  C21 UNL     1      58.087  56.573  68.507  0.00  0.00    +0.000 A 
ENDBRANCH   3   6
ENDBRANCH   2   3
BRANCH   1  12
ATOM     12  N1  UNL     1      58.849  53.136  73.040  0.00  0.00    +0.000 N 
ATOM     13  H4  UNL     1      57.979  52.716  72.645  0.00  0.00    +0.000 HD
BRANCH  12  16
ATOM     14  C1  UNL     1      56.738  54.582  74.862  0.00  0.00    +0.000 C 
ATOM     15  C2  UNL     1      58.031  53.951  75.290  0.00  0.00    +0.000 A 
ATOM     16  C3  UNL     1      58.948  53.329  74.455  0.00  0.00    +0.000 A 
ATOM     17  C22 UNL     1      59.921  52.835  75.298  0.00  0.00    +0.000 A 
ATOM     18  O4  UNL     1      60.940  52.181  74.951  0.00  0.00    +0.000 OA
ATOM     19  N3  UNL     1      59.607  53.141  76.574  0.00  0.00    +0.000 N 
ATOM     20  N4  UNL     1      58.446  53.796  76.575  0.00  0.00    +0.000 N 
ATOM     21  C29 UNL     1      57.754  54.280  77.770  0.00  0.00    +0.000 C 
BRANCH  19  22
ATOM     22  C23 UNL     1      60.341  52.725  77.742  0.00  0.00    +0.000 A 
ATOM     23  C24 UNL     1      60.058  51.498  78.366  0.00  0.00    +0.000 A 
ATOM     24  C25 UNL     1      60.794  51.092  79.485  0.00  0.00    +0.000 A 
ATOM     25  C26 UNL     1      61.811  51.908  79.991  0.00  0.00    +0.000 A 
ATOM     26  C27 UNL     1      62.087  53.137  79.385  0.00  0.00    +0.000 A 
ATOM     27  C28 UNL     1      61.353  53.548  78.267  0.00  0.00    +0.000 A 
ENDBRANCH  19  22
ENDBRANCH  12  16
ENDBRANCH   1  12
BRANCH   2  28
ATOM     28  C5  UNL     1      60.776  55.071  70.495  0.00  0.00    +0.000 C 
ATOM     29  O1  UNL     1      61.209  54.529  69.445  0.00  0.00    +0.000 OA
BRANCH  28  30
ATOM     30  C6  UNL     1      61.410  56.325  70.962  0.00  0.00    +0.000 A 
ATOM     31  C7  UNL     1      60.868  57.551  70.543  0.00  0.00    +0.000 A 
ATOM     32  C8  UNL     1      61.431  58.758  70.952  0.00  0.00    +0.000 A 
ATOM     33  C9  UNL     1      62.541  58.765  71.798  0.00  0.00    +0.000 A 
ATOM     34  C10 UNL     1      63.103  57.558  72.239  0.00  0.00    +0.000 A 
ATOM     35  C11 UNL     1      64.223  57.571  73.086  0.00  0.00    +0.000 A 
ATOM     36  C12 UNL     1      64.797  56.371  73.514  0.00  0.00    +0.000 A 
ATOM     37  C13 UNL     1      64.262  55.151  73.100  0.00  0.00    +0.000 A 
ATOM     38  C14 UNL     1      63.149  55.122  72.254  0.00  0.00    +0.000 A 
ATOM     39  C15 UNL     1      62.544  56.321  71.818  0.00  0.00    +0.000 A 
ENDBRANCH  28  30
ENDBRANCH   2  28
TORSDOF 7
ENDMDL
MODEL 5
REMARK VINA RESULT:    -7.380      2.372      3.155
REMARK INTER + INTRA:         -13.417
REMARK INTER:                 -10.234
REMARK INTRA:                  -3.183
REMARK UNBOUND:                -3.018
REMARK  Name = CNP0031723_0.pdb
REMARK  9 active torsions:
REMARK  status: ('A' for Active; 'I' for Inactive)
REMARK    1  A    between atoms: C1_1  and  C2_2
REMARK    2  A    between atoms: C3_3  and  N1_4
REMARK    3  A    between atoms: N1_4  and  N2_5
REMARK    4  A    between atoms: C4_6  and  C5_7
REMARK    5  A    between atoms: C4_6  and  S1_19
REMARK    6  A    between atoms: C5_7  and  C6_9
REMARK    7  A    between atoms: S1_19  and  C16_22
REMARK    8  A    between atoms: N3_30  and  C23_31
REMARK    9  A    between atoms: N4_37  and  C29_38
REMARK                            x       y       z     vdW  Elec       q    Type
REMARK                         _______ _______ _______ _____ _____    ______ ____
ROOT
ATOM      1  N2  UNL     1      61.063  53.003  69.783  0.00  0.00    +0.000 NA
ATOM      2  C4  UNL     1      60.128  53.864  69.494  0.00  0.00    +0.000 C 
ENDROOT
BRANCH   2   3
ATOM      3  S1  UNL     1      58.507  53.760  70.212  0.00  0.00    +0.000 S 
ATOM      4  O2  UNL     1      57.450  53.818  69.144  0.00  0.00    +0.000 OA
ATOM      5  O3  UNL     1      58.350  52.449  70.933  0.00  0.00    +0.000 OA
BRANCH   3   6
ATOM      6  C16 UNL     1      58.279  55.113  71.317  0.00  0.00    +0.000 A 
ATOM      7  C17 UNL     1      59.208  55.328  72.344  0.00  0.00    +0.000 A 
ATOM      8  C18 UNL     1      59.036  56.391  73.238  0.00  0.00    +0.000 A 
ATOM      9  C19 UNL     1      57.934  57.243  73.109  0.00  0.00    +0.000 A 
ATOM     10  C20 UNL     1      57.003  57.030  72.088  0.00  0.00    +0.000 A 
ATOM     11  C21 UNL     1      57.174  55.969  71.191  0.00  0.00    +0.000 A 
ENDBRANCH   3   6
ENDBRANCH   2   3
BRANCH   1  12
ATOM     12  N1  UNL     1      60.944  51.978  70.739  0.00  0.00    +0.000 N 
ATOM     13  H4  UNL     1      60.046  51.456  70.843  0.00  0.00    +0.000 HD
BRANCH  12  16
ATOM     14  C1  UNL     1      63.909  51.184  70.070  0.00  0.00    +0.000 C 
ATOM     15  C2  UNL     1      63.312  51.417  71.427  0.00  0.00    +0.000 A 
ATOM     16  C3  UNL     1      61.992  51.756  71.688  0.00  0.00    +0.000 A 
ATOM     17  C22 UNL     1      61.936  51.946  73.052  0.00  0.00    +0.000 A 
ATOM     18  O4  UNL     1      60.916  52.284  73.712  0.00  0.00    +0.000 OA
ATOM     19  N3  UNL     1      63.156  51.735  73.586  0.00  0.00    +0.000 N 
ATOM     20  N4  UNL     1      64.001  51.439  72.598  0.00  0.00    +0.000 N 
ATOM     21  C29 UNL     1      65.428  51.164  72.765  0.00  0.00    +0.000 C 
BRANCH  19  22
ATOM     22  C23 UNL     1      63.509  51.915  74.971  0.00  0.00    +0.000 A 
ATOM     23  C24 UNL     1      63.652  53.205  75.511  0.00  0.00    +0.000 A 
ATOM     24  C25 UNL     1      63.971  53.371  76.864  0.00  0.00    +0.000 A 
ATOM     25  C26 UNL     1      64.154  52.253  77.684  0.00  0.00    +0.000 A 
ATOM     26  C27 UNL     1      64.030  50.967  77.151  0.00  0.00    +0.000 A 
ATOM     27  C28 UNL     1      63.713  50.797  75.798  0.00  0.00    +0.000 A 
ENDBRANCH  19  22
ENDBRANCH  12  16
ENDBRANCH   1  12
BRANCH   2  28
ATOM     28  C5  UNL     1      60.455  54.981  68.576  0.00  0.00    +0.000 C 
ATOM     29  O1  UNL     1      61.026  54.751  67.477  0.00  0.00    +0.000 OA
BRANCH  28  30
ATOM     30  C6  UNL     1      60.068  56.373  68.899  0.00  0.00    +0.000 A 
ATOM     31  C7  UNL     1      58.949  56.928  68.255  0.00  0.00    +0.000 A 
ATOM     32  C8  UNL     1      58.547  58.235  68.523  0.00  0.00    +0.000 A 
ATOM     33  C9  UNL     1      59.247  59.011  69.447  0.00  0.00    +0.000 A 
ATOM     34  C10 UNL     1      60.365  58.484  70.112  0.00  0.00    +0.000 A 
ATOM     35  C11 UNL     1      61.069  59.271  71.038  0.00  0.00    +0.000 A 
ATOM     36  C12 UNL     1      62.194  58.757  71.689  0.00  0.00    +0.000 A 
ATOM     37  C13 UNL     1      62.626  57.459  71.421  0.00  0.00    +0.000 A 
ATOM     38  C14 UNL     1      61.938  56.664  70.499  0.00  0.00    +0.000 A 
ATOM     39  C15 UNL     1      60.791  57.156  69.838  0.00  0.00    +0.000 A 
ENDBRANCH  28  30
ENDBRANCH   2  28
TORSDOF 7
ENDMDL
MODEL 6
REMARK VINA RESULT:    -7.377      2.257      3.546
REMARK INTER + INTRA:         -13.414
REMARK INTER:                 -11.494
REMARK INTRA:                  -1.920
REMARK UNBOUND:                -3.018
REMARK  Name = CNP0031723_0.pdb
REMARK  9 active torsions:
REMARK  status: ('A' for Active; 'I' for Inactive)
REMARK    1  A    between atoms: C1_1  and  C2_2
REMARK    2  A    between atoms: C3_3  and  N1_4
REMARK    3  A    between atoms: N1_4  and  N2_5
REMARK    4  A    between atoms: C4_6  and  C5_7
REMARK    5  A    between atoms: C4_6  and  S1_19
REMARK    6  A    between atoms: C5_7  and  C6_9
REMARK    7  A    between atoms: S1_19  and  C16_22
REMARK    8  A    between atoms: N3_30  and  C23_31
REMARK    9  A    between atoms: N4_37  and  C29_38
REMARK                            x       y       z     vdW  Elec       q    Type
REMARK                         _______ _______ _______ _____ _____    ______ ____
ROOT
ATOM      1  N2  UNL     1      59.055  54.413  70.520  0.00  0.00    +0.000 NA
ATOM      2  C4  UNL     1      59.104  55.273  69.541  0.00  0.00    +0.000 C 
ENDROOT
BRANCH   2   3
ATOM      3  S1  UNL     1      57.659  55.700  68.601  0.00  0.00    +0.000 S 
ATOM      4  O2  UNL     1      56.410  55.326  69.350  0.00  0.00    +0.000 OA
ATOM      5  O3  UNL     1      57.620  57.186  68.369  0.00  0.00    +0.000 OA
BRANCH   3   6
ATOM      6  C16 UNL     1      57.690  54.829  67.070  0.00  0.00    +0.000 A 
ATOM      7  C17 UNL     1      58.083  55.499  65.903  0.00  0.00    +0.000 A 
ATOM      8  C18 UNL     1      58.102  54.826  64.677  0.00  0.00    +0.000 A 
ATOM      9  C19 UNL     1      57.728  53.479  64.611  0.00  0.00    +0.000 A 
ATOM     10  C20 UNL     1      57.332  52.807  65.772  0.00  0.00    +0.000 A 
ATOM     11  C21 UNL     1      57.315  53.478  67.001  0.00  0.00    +0.000 A 
ENDBRANCH   3   6
ENDBRANCH   2   3
BRANCH   1  12
ATOM     12  N1  UNL     1      57.880  53.810  71.003  0.00  0.00    +0.000 N 
ATOM     13  H4  UNL     1      57.004  53.834  70.435  0.00  0.00    +0.000 HD
BRANCH  12  16
ATOM     14  C1  UNL     1      57.506  50.806  71.841  0.00  0.00    +0.000 C 
ATOM     15  C2  UNL     1      57.676  51.990  72.747  0.00  0.00    +0.000 A 
ATOM     16  C3  UNL     1      57.828  53.309  72.343  0.00  0.00    +0.000 A 
ATOM     17  C22 UNL     1      58.033  54.019  73.507  0.00  0.00    +0.000 A 
ATOM     18  O4  UNL     1      58.234  55.259  73.593  0.00  0.00    +0.000 OA
ATOM     19  N3  UNL     1      58.008  53.173  74.558  0.00  0.00    +0.000 N 
ATOM     20  N4  UNL     1      57.818  51.937  74.097  0.00  0.00    +0.000 N 
ATOM     21  C29 UNL     1      57.754  50.731  74.925  0.00  0.00    +0.000 C 
BRANCH  19  22
ATOM     22  C23 UNL     1      58.263  53.533  75.930  0.00  0.00    +0.000 A 
ATOM     23  C24 UNL     1      59.559  53.436  76.466  0.00  0.00    +0.000 A 
ATOM     24  C25 UNL     1      59.801  53.811  77.792  0.00  0.00    +0.000 A 
ATOM     25  C26 UNL     1      58.754  54.278  78.592  0.00  0.00    +0.000 A 
ATOM     26  C27 UNL     1      57.459  54.361  78.072  0.00  0.00    +0.000 A 
ATOM     27  C28 UNL     1      57.213  53.986  76.746  0.00  0.00    +0.000 A 
ENDBRANCH  19  22
ENDBRANCH  12  16
ENDBRANCH   1  12
BRANCH   2  28
ATOM     28  C5  UNL     1      60.396  55.938  69.248  0.00  0.00    +0.000 C 
ATOM     29  O1  UNL     1      61.019  55.671  68.187  0.00  0.00    +0.000 OA
BRANCH  28  30
ATOM     30  C6  UNL     1      60.948  56.967  70.158  0.00  0.00    +0.000 A 
ATOM     31  C7  UNL     1      60.487  58.289  70.039  0.00  0.00    +0.000 A 
ATOM     32  C8  UNL     1      60.979  59.294  70.870  0.00  0.00    +0.000 A 
ATOM     33  C9  UNL     1      61.931  58.997  71.844  0.00  0.00    +0.000 A 
ATOM     34  C10 UNL     1      62.408  57.686  71.993  0.00  0.00    +0.000 A 
ATOM     35  C11 UNL     1      63.371  57.394  72.973  0.00  0.00    +0.000 A 
ATOM     36  C12 UNL     1      63.862  56.093  73.113  0.00  0.00    +0.000 A 
ATOM     37  C13 UNL     1      63.399  55.076  72.278  0.00  0.00    +0.000 A 
ATOM     38  C14 UNL     1      62.443  55.352  71.296  0.00  0.00    +0.000 A 
ATOM     39  C15 UNL     1      61.923  56.655  71.144  0.00  0.00    +0.000 A 
ENDBRANCH  28  30
ENDBRANCH   2  28
TORSDOF 7
ENDMDL
MODEL 7
REMARK VINA RESULT:    -7.291      1.682      2.358
REMARK INTER + INTRA:         -13.293
REMARK INTER:                  -9.636
REMARK INTRA:                  -3.657
REMARK UNBOUND:                -3.018
REMARK  Name = CNP0031723_0.pdb
REMARK  9 active torsions:
REMARK  status: ('A' for Active; 'I' for Inactive)
REMARK    1  A    between atoms: C1_1  and  C2_2
REMARK    2  A    between atoms: C3_3  and  N1_4
REMARK    3  A    between atoms: N1_4  and  N2_5
REMARK    4  A    between atoms: C4_6  and  C5_7
REMARK    5  A    between atoms: C4_6  and  S1_19
REMARK    6  A    between atoms: C5_7  and  C6_9
REMARK    7  A    between atoms: S1_19  and  C16_22
REMARK    8  A    between atoms: N3_30  and  C23_31
REMARK    9  A    between atoms: N4_37  and  C29_38
REMARK                            x       y       z     vdW  Elec       q    Type
REMARK                         _______ _______ _______ _____ _____    ______ ____
ROOT
ATOM      1  N2  UNL     1      60.618  52.653  70.259  0.00  0.00    +0.000 NA
ATOM      2  C4  UNL     1      59.922  53.644  69.777  0.00  0.00    +0.000 C 
ENDROOT
BRANCH   2   3
ATOM      3  S1  UNL     1      58.175  53.782  70.059  0.00  0.00    +0.000 S 
ATOM      4  O2  UNL     1      57.471  54.235  68.809  0.00  0.00    +0.000 OA
ATOM      5  O3  UNL     1      57.609  52.439  70.433  0.00  0.00    +0.000 OA
BRANCH   3   6
ATOM      6  C16 UNL     1      57.888  54.961  71.336  0.00  0.00    +0.000 A 
ATOM      7  C17 UNL     1      58.274  54.660  72.650  0.00  0.00    +0.000 A 
ATOM      8  C18 UNL     1      58.043  55.580  73.679  0.00  0.00    +0.000 A 
ATOM      9  C19 UNL     1      57.426  56.804  73.399  0.00  0.00    +0.000 A 
ATOM     10  C20 UNL     1      57.037  57.106  72.090  0.00  0.00    +0.000 A 
ATOM     11  C21 UNL     1      57.269  56.189  71.059  0.00  0.00    +0.000 A 
ENDBRANCH   3   6
ENDBRANCH   2   3
BRANCH   1  12
ATOM     12  N1  UNL     1      60.113  51.656  71.113  0.00  0.00    +0.000 N 
ATOM     13  H4  UNL     1      59.420  50.961  70.760  0.00  0.00    +0.000 HD
BRANCH  12  16
ATOM     14  C1  UNL     1      58.160  50.871  73.444  0.00  0.00    +0.000 C 
ATOM     15  C2  UNL     1      59.580  51.338  73.565  0.00  0.00    +0.000 A 
ATOM     16  C3  UNL     1      60.414  51.689  72.513  0.00  0.00    +0.000 A 
ATOM     17  C22 UNL     1      61.631  51.966  73.098  0.00  0.00    +0.000 A 
ATOM     18  O4  UNL     1      62.682  52.311  72.495  0.00  0.00    +0.000 OA
ATOM     19  N3  UNL     1      61.538  51.790  74.432  0.00  0.00    +0.000 N 
ATOM     20  N4  UNL     1      60.301  51.384  74.716  0.00  0.00    +0.000 N 
ATOM     21  C29 UNL     1      59.808  51.062  76.056  0.00  0.00    +0.000 C 
BRANCH  19  22
ATOM     22  C23 UNL     1      62.624  51.907  75.372  0.00  0.00    +0.000 A 
ATOM     23  C24 UNL     1      63.470  50.814  75.628  0.00  0.00    +0.000 A 
ATOM     24  C25 UNL     1      64.537  50.945  76.524  0.00  0.00    +0.000 A 
ATOM     25  C26 UNL     1      64.763  52.163  77.173  0.00  0.00    +0.000 A 
ATOM     26  C27 UNL     1      63.917  53.250  76.936  0.00  0.00    +0.000 A 
ATOM     27  C28 UNL     1      62.848  53.122  76.042  0.00  0.00    +0.000 A 
ENDBRANCH  19  22
ENDBRANCH  12  16
ENDBRANCH   1  12
BRANCH   2  28
ATOM     28  C5  UNL     1      60.631  54.700  69.016  0.00  0.00    +0.000 C 
ATOM     29  O1  UNL     1      61.398  54.391  68.067  0.00  0.00    +0.000 OA
BRANCH  28  30
ATOM     30  C6  UNL     1      60.408  56.134  69.311  0.00  0.00    +0.000 A 
ATOM     31  C7  UNL     1      59.779  56.932  68.340  0.00  0.00    +0.000 A 
ATOM     32  C8  UNL     1      59.550  58.287  68.569  0.00  0.00    +0.000 A 
ATOM     33  C9  UNL     1      59.932  58.871  69.777  0.00  0.00    +0.000 A 
ATOM     34  C10 UNL     1      60.556  58.100  70.770  0.00  0.00    +0.000 A 
ATOM     35  C11 UNL     1      60.944  58.694  71.982  0.00  0.00    +0.000 A 
ATOM     36  C12 UNL     1      61.582  57.935  72.967  0.00  0.00    +0.000 A 
ATOM     37  C13 UNL     1      61.840  56.581  72.750  0.00  0.00    +0.000 A 
ATOM     38  C14 UNL     1      61.464  55.977  71.547  0.00  0.00    +0.000 A 
ATOM     39  C15 UNL     1      60.806  56.720  70.542  0.00  0.00    +0.000 A 
ENDBRANCH  28  30
ENDBRANCH   2  28
TORSDOF 7
ENDMDL
MODEL 8
REMARK VINA RESULT:    -7.247      2.638      7.586
REMARK INTER + INTRA:         -13.230
REMARK INTER:                 -11.274
REMARK INTRA:                  -1.956
REMARK UNBOUND:                -3.018
REMARK  Name = CNP0031723_0.pdb
REMARK  9 active torsions:
REMARK  status: ('A' for Active; 'I' for Inactive)
REMARK    1  A    between atoms: C1_1  and  C2_2
REMARK    2  A    between atoms: C3_3  and  N1_4
REMARK    3  A    between atoms: N1_4  and  N2_5
REMARK    4  A    between atoms: C4_6  and  C5_7
REMARK    5  A    between atoms: C4_6  and  S1_19
REMARK    6  A    between atoms: C5_7  and  C6_9
REMARK    7  A    between atoms: S1_19  and  C16_22
REMARK    8  A    between atoms: N3_30  and  C23_31
REMARK    9  A    between atoms: N4_37  and  C29_38
REMARK                            x       y       z     vdW  Elec       q    Type
REMARK                         _______ _______ _______ _____ _____    ______ ____
ROOT
ATOM      1  N2  UNL     1      60.271  53.638  72.926  0.00  0.00    +0.000 NA
ATOM      2  C4  UNL     1      61.407  53.029  73.120  0.00  0.00    +0.000 C 
ENDROOT
BRANCH   2   3
ATOM      3  S1  UNL     1      62.841  53.390  72.136  0.00  0.00    +0.000 S 
ATOM      4  O2  UNL     1      63.949  52.419  72.439  0.00  0.00    +0.000 OA
ATOM      5  O3  UNL     1      62.506  53.254  70.676  0.00  0.00    +0.000 OA
BRANCH   3   6
ATOM      6  C16 UNL     1      63.394  55.022  72.502  0.00  0.00    +0.000 A 
ATOM      7  C17 UNL     1      64.224  55.235  73.612  0.00  0.00    +0.000 A 
ATOM      8  C18 UNL     1      64.664  56.526  73.924  0.00  0.00    +0.000 A 
ATOM      9  C19 UNL     1      64.275  57.610  73.129  0.00  0.00    +0.000 A 
ATOM     10  C20 UNL     1      63.444  57.402  72.023  0.00  0.00    +0.000 A 
ATOM     11  C21 UNL     1      63.005  56.111  71.707  0.00  0.00    +0.000 A 
ENDBRANCH   3   6
ENDBRANCH   2   3
BRANCH   1  12
ATOM     12  N1  UNL     1      60.067  54.687  72.013  0.00  0.00    +0.000 N 
ATOM     13  H4  UNL     1      60.402  55.651  72.235  0.00  0.00    +0.000 HD
BRANCH  12  16
ATOM     14  C1  UNL     1      57.108  53.635  71.990  0.00  0.00    +0.000 C 
ATOM     15  C2  UNL     1      57.942  54.033  70.808  0.00  0.00    +0.000 A 
ATOM     16  C3  UNL     1      59.254  54.484  70.852  0.00  0.00    +0.000 A 
ATOM     17  C22 UNL     1      59.567  54.803  69.548  0.00  0.00    +0.000 A 
ATOM     18  O4  UNL     1      60.665  55.269  69.142  0.00  0.00    +0.000 OA
ATOM     19  N3  UNL     1      58.501  54.559  68.758  0.00  0.00    +0.000 N 
ATOM     20  N4  UNL     1      57.503  54.116  69.525  0.00  0.00    +0.000 N 
ATOM     21  C29 UNL     1      56.167  53.762  69.045  0.00  0.00    +0.000 C 
BRANCH  19  22
ATOM     22  C23 UNL     1      58.419  54.843  67.348  0.00  0.00    +0.000 A 
ATOM     23  C24 UNL     1      58.594  53.819  66.401  0.00  0.00    +0.000 A 
ATOM     24  C25 UNL     1      58.488  54.100  65.034  0.00  0.00    +0.000 A 
ATOM     25  C26 UNL     1      58.212  55.402  64.604  0.00  0.00    +0.000 A 
ATOM     26  C27 UNL     1      58.053  56.429  65.539  0.00  0.00    +0.000 A 
ATOM     27  C28 UNL     1      58.160  56.152  66.907  0.00  0.00    +0.000 A 
ENDBRANCH  19  22
ENDBRANCH  12  16
ENDBRANCH   1  12
BRANCH   2  28
ATOM     28  C5  UNL     1      61.502  52.046  74.226  0.00  0.00    +0.000 C 
ATOM     29  O1  UNL     1      61.159  50.849  74.041  0.00  0.00    +0.000 OA
BRANCH  28  30
ATOM     30  C6  UNL     1      62.056  52.432  75.544  0.00  0.00    +0.000 A 
ATOM     31  C7  UNL     1      63.438  52.300  75.759  0.00  0.00    +0.000 A 
ATOM     32  C8  UNL     1      64.007  52.646  76.984  0.00  0.00    +0.000 A 
ATOM     33  C9  UNL     1      63.208  53.142  78.014  0.00  0.00    +0.000 A 
ATOM     34  C10 UNL     1      61.825  53.292  77.830  0.00  0.00    +0.000 A 
ATOM     35  C11 UNL     1      61.025  53.787  78.873  0.00  0.00    +0.000 A 
ATOM     36  C12 UNL     1      59.645  53.921  78.700  0.00  0.00    +0.000 A 
ATOM     37  C13 UNL     1      59.053  53.561  77.490  0.00  0.00    +0.000 A 
ATOM     38  C14 UNL     1      59.835  53.063  76.443  0.00  0.00    +0.000 A 
ATOM     39  C15 UNL     1      61.233  52.931  76.589  0.00  0.00    +0.000 A 
ENDBRANCH  28  30
ENDBRANCH   2  28
TORSDOF 7
ENDMDL
MODEL 9
REMARK VINA RESULT:    -7.203      2.789      4.099
REMARK INTER + INTRA:         -13.168
REMARK INTER:                 -11.783
REMARK INTRA:                  -1.385
REMARK UNBOUND:                -3.018
REMARK  Name = CNP0031723_0.pdb
REMARK  9 active torsions:
REMARK  status: ('A' for Active; 'I' for Inactive)
REMARK    1  A    between atoms: C1_1  and  C2_2
REMARK    2  A    between atoms: C3_3  and  N1_4
REMARK    3  A    between atoms: N1_4  and  N2_5
REMARK    4  A    between atoms: C4_6  and  C5_7
REMARK    5  A    between atoms: C4_6  and  S1_19
REMARK    6  A    between atoms: C5_7  and  C6_9
REMARK    7  A    between atoms: S1_19  and  C16_22
REMARK    8  A    between atoms: N3_30  and  C23_31
REMARK    9  A    between atoms: N4_37  and  C29_38
REMARK                            x       y       z     vdW  Elec       q    Type
REMARK                         _______ _______ _______ _____ _____    ______ ____
ROOT
ATOM      1  N2  UNL     1      58.005  55.380  71.083  0.00  0.00    +0.000 NA
ATOM      2  C4  UNL     1      58.483  55.014  69.926  0.00  0.00    +0.000 C 
ENDROOT
BRANCH   2   3
ATOM      3  S1  UNL     1      57.492  54.139  68.740  0.00  0.00    +0.000 S 
ATOM      4  O2  UNL     1      57.838  52.676  68.739  0.00  0.00    +0.000 OA
ATOM      5  O3  UNL     1      56.037  54.260  69.102  0.00  0.00    +0.000 OA
BRANCH   3   6
ATOM      6  C16 UNL     1      57.795  54.801  67.136  0.00  0.00    +0.000 A 
ATOM      7  C17 UNL     1      57.843  53.938  66.032  0.00  0.00    +0.000 A 
ATOM      8  C18 UNL     1      58.094  54.444  64.753  0.00  0.00    +0.000 A 
ATOM      9  C19 UNL     1      58.300  55.816  64.570  0.00  0.00    +0.000 A 
ATOM     10  C20 UNL     1      58.257  56.680  65.669  0.00  0.00    +0.000 A 
ATOM     11  C21 UNL     1      58.003  56.177  66.950  0.00  0.00    +0.000 A 
ENDBRANCH   3   6
ENDBRANCH   2   3
BRANCH   1  12
ATOM     12  N1  UNL     1      56.667  55.222  71.486  0.00  0.00    +0.000 N 
ATOM     13  H4  UNL     1      55.892  55.613  70.906  0.00  0.00    +0.000 HD
BRANCH  12  16
ATOM     14  C1  UNL     1      55.693  52.293  72.070  0.00  0.00    +0.000 C 
ATOM     15  C2  UNL     1      55.945  53.386  73.068  0.00  0.00    +0.000 A 
ATOM     16  C3  UNL     1      56.365  54.675  72.774  0.00  0.00    +0.000 A 
ATOM     17  C22 UNL     1      56.539  55.282  73.999  0.00  0.00    +0.000 A 
ATOM     18  O4  UNL     1      56.933  56.464  74.192  0.00  0.00    +0.000 OA
ATOM     19  N3  UNL     1      56.242  54.406  74.981  0.00  0.00    +0.000 N 
ATOM     20  N4  UNL     1      55.906  53.245  74.419  0.00  0.00    +0.000 N 
ATOM     21  C29 UNL     1      55.538  52.031  75.150  0.00  0.00    +0.000 C 
BRANCH  19  22
ATOM     22  C23 UNL     1      56.380  54.650  76.394  0.00  0.00    +0.000 A 
ATOM     23  C24 UNL     1      55.367  55.312  77.109  0.00  0.00    +0.000 A 
ATOM     24  C25 UNL     1      55.499  55.523  78.486  0.00  0.00    +0.000 A 
ATOM     25  C26 UNL     1      56.643  55.080  79.157  0.00  0.00    +0.000 A 
ATOM     26  C27 UNL     1      57.663  54.436  78.451  0.00  0.00    +0.000 A 
ATOM     27  C28 UNL     1      57.535  54.225  77.073  0.00  0.00    +0.000 A 
ENDBRANCH  19  22
ENDBRANCH  12  16
ENDBRANCH   1  12
BRANCH   2  28
ATOM     28  C5  UNL     1      59.877  55.387  69.588  0.00  0.00    +0.000 C 
ATOM     29  O1  UNL     1      60.545  54.682  68.786  0.00  0.00    +0.000 OA
BRANCH  28  30
ATOM     30  C6  UNL     1      60.491  56.620  70.131  0.00  0.00    +0.000 A 
ATOM     31  C7  UNL     1      59.930  57.861  69.785  0.00  0.00    +0.000 A 
ATOM     32  C8  UNL     1      60.474  59.050  70.268  0.00  0.00    +0.000 A 
ATOM     33  C9  UNL     1      61.581  59.023  71.117  0.00  0.00    +0.000 A 
ATOM     34  C10 UNL     1      62.160  57.800  71.487  0.00  0.00    +0.000 A 
ATOM     35  C11 UNL     1      63.278  57.779  72.337  0.00  0.00    +0.000 A 
ATOM     36  C12 UNL     1      63.869  56.564  72.695  0.00  0.00    +0.000 A 
ATOM     37  C13 UNL     1      63.354  55.364  72.206  0.00  0.00    +0.000 A 
ATOM     38  C14 UNL     1      62.245  55.368  71.356  0.00  0.00    +0.000 A 
ATOM     39  C15 UNL     1      61.622  56.582  70.990  0.00  0.00    +0.000 A 
ENDBRANCH  28  30
ENDBRANCH   2  28
TORSDOF 7
ENDMDL
MODEL 10
REMARK VINA RESULT:    -7.154      1.792      2.331
REMARK INTER + INTRA:         -13.100
REMARK INTER:                 -11.164
REMARK INTRA:                  -1.936
REMARK UNBOUND:                -3.018
REMARK  Name = CNP0031723_0.pdb
REMARK  9 active torsions:
REMARK  status: ('A' for Active; 'I' for Inactive)
REMARK    1  A    between atoms: C1_1  and  C2_2
REMARK    2  A    between atoms: C3_3  and  N1_4
REMARK    3  A    between atoms: N1_4  and  N2_5
REMARK    4  A    between atoms: C4_6  and  C5_7
REMARK    5  A    between atoms: C4_6  and  S1_19
REMARK    6  A    between atoms: C5_7  and  C6_9
REMARK    7  A    between atoms: S1_19  and  C16_22
REMARK    8  A    between atoms: N3_30  and  C23_31
REMARK    9  A    between atoms: N4_37  and  C29_38
REMARK                            x       y       z     vdW  Elec       q    Type
REMARK                         _______ _______ _______ _____ _____    ______ ____
ROOT
ATOM      1  N2  UNL     1      61.077  53.029  72.108  0.00  0.00    +0.000 NA
ATOM      2  C4  UNL     1      60.388  53.742  71.262  0.00  0.00    +0.000 C 
ENDROOT
BRANCH   2   3
ATOM      3  S1  UNL     1      58.615  53.657  71.196  0.00  0.00    +0.000 S 
ATOM      4  O2  UNL     1      58.127  53.877  69.790  0.00  0.00    +0.000 OA
ATOM      5  O3  UNL     1      58.152  52.292  71.627  0.00  0.00    +0.000 OA
BRANCH   3   6
ATOM      6  C16 UNL     1      57.939  54.905  72.239  0.00  0.00    +0.000 A 
ATOM      7  C17 UNL     1      57.475  54.560  73.516  0.00  0.00    +0.000 A 
ATOM      8  C18 UNL     1      56.924  55.536  74.352  0.00  0.00    +0.000 A 
ATOM      9  C19 UNL     1      56.835  56.863  73.917  0.00  0.00    +0.000 A 
ATOM     10  C20 UNL     1      57.294  57.211  72.643  0.00  0.00    +0.000 A 
ATOM     11  C21 UNL     1      57.848  56.237  71.804  0.00  0.00    +0.000 A 
ENDBRANCH   3   6
ENDBRANCH   2   3
BRANCH   1  12
ATOM     12  N1  UNL     1      60.524  52.205  73.104  0.00  0.00    +0.000 N 
ATOM     13  H4  UNL     1      59.563  51.813  72.990  0.00  0.00    +0.000 HD
BRANCH  12  16
ATOM     14  C1  UNL     1      63.573  51.555  73.485  0.00  0.00    +0.000 C 
ATOM     15  C2  UNL     1      62.545  51.761  74.558  0.00  0.00    +0.000 A 
ATOM     16  C3  UNL     1      61.200  52.036  74.354  0.00  0.00    +0.000 A 
ATOM     17  C22 UNL     1      60.679  52.226  75.616  0.00  0.00    +0.000 A 
ATOM     18  O4  UNL     1      59.483  52.516  75.889  0.00  0.00    +0.000 OA
ATOM     19  N3  UNL     1      61.657  52.075  76.533  0.00  0.00    +0.000 N 
ATOM     20  N4  UNL     1      62.797  51.819  75.892  0.00  0.00    +0.000 N 
ATOM     21  C29 UNL     1      64.096  51.615  76.534  0.00  0.00    +0.000 C 
BRANCH  19  22
ATOM     22  C23 UNL     1      61.514  52.276  77.953  0.00  0.00    +0.000 A 
ATOM     23  C24 UNL     1      61.464  53.573  78.491  0.00  0.00    +0.000 A 
ATOM     24  C25 UNL     1      61.301  53.758  79.869  0.00  0.00    +0.000 A 
ATOM     25  C26 UNL     1      61.192  52.652  80.717  0.00  0.00    +0.000 A 
ATOM     26  C27 UNL     1      61.257  51.358  80.192  0.00  0.00    +0.000 A 
ATOM     27  C28 UNL     1      61.422  51.169  78.815  0.00  0.00    +0.000 A 
ENDBRANCH  19  22
ENDBRANCH  12  16
ENDBRANCH   1  12
BRANCH   2  28
ATOM     28  C5  UNL     1      61.113  54.679  70.372  0.00  0.00    +0.000 C 
ATOM     29  O1  UNL     1      61.339  54.367  69.173  0.00  0.00    +0.000 OA
BRANCH  28  30
ATOM     30  C6  UNL     1      61.531  56.017  70.849  0.00  0.00    +0.000 A 
ATOM     31  C7  UNL     1      60.839  57.146  70.380  0.00  0.00    +0.000 A 
ATOM     32  C8  UNL     1      61.197  58.427  70.797  0.00  0.00    +0.000 A 
ATOM     33  C9  UNL     1      62.244  58.605  71.701  0.00  0.00    +0.000 A 
ATOM     34  C10 UNL     1      62.952  57.498  72.193  0.00  0.00    +0.000 A 
ATOM     35  C11 UNL     1      64.009  57.683  73.098  0.00  0.00    +0.000 A 
ATOM     36  C12 UNL     1      64.728  56.585  73.577  0.00  0.00    +0.000 A 
ATOM     37  C13 UNL     1      64.400  55.296  73.157  0.00  0.00    +0.000 A 
ATOM     38  C14 UNL     1      63.353  55.095  72.253  0.00  0.00    +0.000 A 
ATOM     39  C15 UNL     1      62.603  56.188  71.765  0.00  0.00    +0.000 A 
ENDBRANCH  28  30
ENDBRANCH   2  28
TORSDOF 7
ENDMDL
