MODEL 1
REMARK VINA RESULT:    -7.138      0.000      0.000
REMARK INTER + INTRA:          -8.446
REMARK INTER:                  -7.973
REMARK INTRA:                  -0.473
REMARK UNBOUND:                -0.473
REMARK  Name = CNP0599196_0.pdb
REMARK  4 active torsions:
REMARK  status: ('A' for Active; 'I' for Inactive)
REMARK    1  A    between atoms: C1_1  and  C2_2
REMARK    2  A    between atoms: C4_4  and  C5_5
REMARK    3  A    between atoms: C7_7  and  N1_8
REMARK    4  A    between atoms: C11_15  and  C12_16
REMARK                            x       y       z     vdW  Elec       q    Type
REMARK                         _______ _______ _______ _____ _____    ______ ____
ROOT
ATOM      1  N1  UNL     1      19.799  31.942  38.708  0.00  0.00    +0.000 N 
ATOM      2  C8  UNL     1      20.477  31.008  39.568  0.00  0.00    +0.000 C 
ATOM      3  O1  UNL     1      20.051  29.827  39.688  0.00  0.00    +0.000 OA
ATOM      4  N2  UNL     1      21.658  31.400  40.268  0.00  0.00    +0.000 N 
ATOM      5  C9  UNL     1      22.144  32.743  40.214  0.00  0.00    +0.000 C 
ATOM      6  O2  UNL     1      23.190  33.043  40.849  0.00  0.00    +0.000 OA
ATOM      7  C10 UNL     1      21.407  33.767  39.436  0.00  0.00    +0.000 C 
ATOM      8  C11 UNL     1      21.767  35.067  39.536  0.00  0.00    +0.000 C 
ATOM      9  C20 UNL     1      20.314  33.279  38.552  0.00  0.00    +0.000 C 
ATOM     10  O3  UNL     1      19.869  34.011  37.625  0.00  0.00    +0.000 OA
ATOM     11  H9  UNL     1      22.167  30.695  40.847  0.00  0.00    +0.000 HD
ENDROOT
BRANCH   8  12
ATOM     12  C12 UNL     1      21.004  36.212  39.003  0.00  0.00    +0.000 A 
ATOM     13  C13 UNL     1      19.923  36.862  39.598  0.00  0.00    +0.000 A 
ATOM     14  N3  UNL     1      19.579  37.959  38.887  0.00  0.00    +0.000 N 
ATOM     15  C14 UNL     1      20.448  38.025  37.863  0.00  0.00    +0.000 A 
ATOM     16  C15 UNL     1      20.513  39.003  36.872  0.00  0.00    +0.000 A 
ATOM     17  C16 UNL     1      21.531  38.893  35.906  0.00  0.00    +0.000 A 
ATOM     18  C17 UNL     1      22.451  37.823  35.955  0.00  0.00    +0.000 A 
ATOM     19  C18 UNL     1      22.364  36.853  36.969  0.00  0.00    +0.000 A 
ATOM     20  C19 UNL     1      21.341  36.985  37.909  0.00  0.00    +0.000 A 
ATOM     21  H12 UNL     1      18.813  38.633  39.108  0.00  0.00    +0.000 HD
ENDBRANCH   8  12
BRANCH   1  28
ATOM     22  C1  UNL     1      15.010  30.573  38.716  0.00  0.00    +0.000 C 
ATOM     23  C2  UNL     1      16.288  30.839  37.977  0.00  0.00    +0.000 A 
ATOM     24  C3  UNL     1      16.330  30.739  36.578  0.00  0.00    +0.000 A 
ATOM     25  C4  UNL     1      17.511  31.035  35.880  0.00  0.00    +0.000 A 
ATOM     26  C5  UNL     1      17.563  30.880  34.389  0.00  0.00    +0.000 C 
ATOM     27  C6  UNL     1      18.658  31.414  36.591  0.00  0.00    +0.000 A 
ATOM     28  C7  UNL     1      18.623  31.531  37.988  0.00  0.00    +0.000 A 
ATOM     29  C21 UNL     1      17.431  31.255  38.676  0.00  0.00    +0.000 A 
ENDBRANCH   1  28
TORSDOF 2
ENDMDL
MODEL 2
REMARK VINA RESULT:    -6.888      3.205      6.537
REMARK INTER + INTRA:          -8.166
REMARK INTER:                  -7.428
REMARK INTRA:                  -0.738
REMARK UNBOUND:                -0.473
REMARK  Name = CNP0599196_0.pdb
REMARK  4 active torsions:
REMARK  status: ('A' for Active; 'I' for Inactive)
REMARK    1  A    between atoms: C1_1  and  C2_2
REMARK    2  A    between atoms: C4_4  and  C5_5
REMARK    3  A    between atoms: C7_7  and  N1_8
REMARK    4  A    between atoms: C11_15  and  C12_16
REMARK                            x       y       z     vdW  Elec       q    Type
REMARK                         _______ _______ _______ _____ _____    ______ ____
ROOT
ATOM      1  N1  UNL     1      23.613  34.538  38.651  0.00  0.00    +0.000 N 
ATOM      2  C8  UNL     1      23.398  33.126  38.831  0.00  0.00    +0.000 C 
ATOM      3  O1  UNL     1      24.377  32.348  38.993  0.00  0.00    +0.000 OA
ATOM      4  N2  UNL     1      22.071  32.597  38.861  0.00  0.00    +0.000 N 
ATOM      5  C9  UNL     1      20.934  33.429  38.620  0.00  0.00    +0.000 C 
ATOM      6  O2  UNL     1      19.782  32.917  38.655  0.00  0.00    +0.000 OA
ATOM      7  C10 UNL     1      21.118  34.866  38.311  0.00  0.00    +0.000 C 
ATOM      8  C11 UNL     1      20.058  35.603  37.907  0.00  0.00    +0.000 C 
ATOM      9  C20 UNL     1      22.485  35.423  38.501  0.00  0.00    +0.000 C 
ATOM     10  O3  UNL     1      22.659  36.670  38.587  0.00  0.00    +0.000 OA
ATOM     11  H9  UNL     1      21.930  31.578  39.044  0.00  0.00    +0.000 HD
ENDROOT
BRANCH   8  12
ATOM     12  C12 UNL     1      20.122  36.972  37.361  0.00  0.00    +0.000 A 
ATOM     13  C13 UNL     1      20.148  37.349  36.018  0.00  0.00    +0.000 A 
ATOM     14  N3  UNL     1      20.056  38.693  35.902  0.00  0.00    +0.000 N 
ATOM     15  C14 UNL     1      19.946  39.167  37.155  0.00  0.00    +0.000 A 
ATOM     16  C15 UNL     1      19.794  40.497  37.545  0.00  0.00    +0.000 A 
ATOM     17  C16 UNL     1      19.665  40.769  38.920  0.00  0.00    +0.000 A 
ATOM     18  C17 UNL     1      19.687  39.716  39.862  0.00  0.00    +0.000 A 
ATOM     19  C18 UNL     1      19.836  38.383  39.439  0.00  0.00    +0.000 A 
ATOM     20  C19 UNL     1      19.967  38.146  38.070  0.00  0.00    +0.000 A 
ATOM     21  H12 UNL     1      20.043  39.245  35.015  0.00  0.00    +0.000 HD
ENDBRANCH   8  12
BRANCH   1  28
ATOM     22  C1  UNL     1      27.515  36.395  41.128  0.00  0.00    +0.000 C 
ATOM     23  C2  UNL     1      26.860  35.995  39.839  0.00  0.00    +0.000 A 
ATOM     24  C3  UNL     1      27.566  36.082  38.630  0.00  0.00    +0.000 A 
ATOM     25  C4  UNL     1      26.974  35.663  37.430  0.00  0.00    +0.000 A 
ATOM     26  C5  UNL     1      27.716  35.804  36.133  0.00  0.00    +0.000 C 
ATOM     27  C6  UNL     1      25.661  35.170  37.441  0.00  0.00    +0.000 A 
ATOM     28  C7  UNL     1      24.952  35.064  38.646  0.00  0.00    +0.000 A 
ATOM     29  C21 UNL     1      25.560  35.466  39.844  0.00  0.00    +0.000 A 
ENDBRANCH   1  28
TORSDOF 2
ENDMDL
MODEL 3
REMARK VINA RESULT:    -6.881      3.643      6.704
REMARK INTER + INTRA:          -8.158
REMARK INTER:                  -7.941
REMARK INTRA:                  -0.217
REMARK UNBOUND:                -0.473
REMARK  Name = CNP0599196_0.pdb
REMARK  4 active torsions:
REMARK  status: ('A' for Active; 'I' for Inactive)
REMARK    1  A    between atoms: C1_1  and  C2_2
REMARK    2  A    between atoms: C4_4  and  C5_5
REMARK    3  A    between atoms: C7_7  and  N1_8
REMARK    4  A    between atoms: C11_15  and  C12_16
REMARK                            x       y       z     vdW  Elec       q    Type
REMARK                         _______ _______ _______ _____ _____    ______ ____
ROOT
ATOM      1  N1  UNL     1      20.801  36.478  37.202  0.00  0.00    +0.000 N 
ATOM      2  C8  UNL     1      20.149  35.728  36.161  0.00  0.00    +0.000 C 
ATOM      3  O1  UNL     1      19.263  36.271  35.445  0.00  0.00    +0.000 OA
ATOM      4  N2  UNL     1      20.521  34.373  35.906  0.00  0.00    +0.000 N 
ATOM      5  C9  UNL     1      21.473  33.697  36.731  0.00  0.00    +0.000 C 
ATOM      6  O2  UNL     1      21.770  32.500  36.468  0.00  0.00    +0.000 OA
ATOM      7  C10 UNL     1      22.079  34.393  37.889  0.00  0.00    +0.000 C 
ATOM      8  C11 UNL     1      22.836  33.696  38.766  0.00  0.00    +0.000 C 
ATOM      9  C20 UNL     1      21.835  35.858  37.993  0.00  0.00    +0.000 C 
ATOM     10  O3  UNL     1      22.565  36.576  38.731  0.00  0.00    +0.000 OA
ATOM     11  H9  UNL     1      20.075  33.860  35.114  0.00  0.00    +0.000 HD
ENDROOT
BRANCH   8  12
ATOM     12  C12 UNL     1      23.321  34.194  40.068  0.00  0.00    +0.000 A 
ATOM     13  C13 UNL     1      22.710  34.045  41.313  0.00  0.00    +0.000 A 
ATOM     14  N3  UNL     1      23.520  34.502  42.296  0.00  0.00    +0.000 N 
ATOM     15  C14 UNL     1      24.646  34.912  41.686  0.00  0.00    +0.000 A 
ATOM     16  C15 UNL     1      25.789  35.435  42.289  0.00  0.00    +0.000 A 
ATOM     17  C16 UNL     1      26.874  35.774  41.458  0.00  0.00    +0.000 A 
ATOM     18  C17 UNL     1      26.792  35.581  40.061  0.00  0.00    +0.000 A 
ATOM     19  C18 UNL     1      25.627  35.048  39.481  0.00  0.00    +0.000 A 
ATOM     20  C19 UNL     1      24.567  34.727  40.330  0.00  0.00    +0.000 A 
ATOM     21  H12 UNL     1      23.320  34.505  43.320  0.00  0.00    +0.000 HD
ENDBRANCH   8  12
BRANCH   1  28
ATOM     22  C1  UNL     1      19.273  40.052  40.317  0.00  0.00    +0.000 C 
ATOM     23  C2  UNL     1      19.668  39.603  38.941  0.00  0.00    +0.000 A 
ATOM     24  C3  UNL     1      19.733  40.528  37.888  0.00  0.00    +0.000 A 
ATOM     25  C4  UNL     1      20.148  40.122  36.610  0.00  0.00    +0.000 A 
ATOM     26  C5  UNL     1      20.170  41.104  35.476  0.00  0.00    +0.000 C 
ATOM     27  C6  UNL     1      20.482  38.778  36.387  0.00  0.00    +0.000 A 
ATOM     28  C7  UNL     1      20.435  37.849  37.436  0.00  0.00    +0.000 A 
ATOM     29  C21 UNL     1      20.040  38.270  38.715  0.00  0.00    +0.000 A 
ENDBRANCH   1  28
TORSDOF 2
ENDMDL
MODEL 4
REMARK VINA RESULT:    -6.866      3.550      5.617
REMARK INTER + INTRA:          -8.142
REMARK INTER:                  -7.494
REMARK INTRA:                  -0.649
REMARK UNBOUND:                -0.473
REMARK  Name = CNP0599196_0.pdb
REMARK  4 active torsions:
REMARK  status: ('A' for Active; 'I' for Inactive)
REMARK    1  A    between atoms: C1_1  and  C2_2
REMARK    2  A    between atoms: C4_4  and  C5_5
REMARK    3  A    between atoms: C7_7  and  N1_8
REMARK    4  A    between atoms: C11_15  and  C12_16
REMARK                            x       y       z     vdW  Elec       q    Type
REMARK                         _______ _______ _______ _____ _____    ______ ____
ROOT
ATOM      1  N1  UNL     1      21.310  34.188  39.334  0.00  0.00    +0.000 N 
ATOM      2  C8  UNL     1      20.583  32.957  39.502  0.00  0.00    +0.000 C 
ATOM      3  O1  UNL     1      19.364  32.890  39.186  0.00  0.00    +0.000 OA
ATOM      4  N2  UNL     1      21.242  31.792  39.999  0.00  0.00    +0.000 N 
ATOM      5  C9  UNL     1      22.605  31.836  40.430  0.00  0.00    +0.000 C 
ATOM      6  O2  UNL     1      23.145  30.782  40.862  0.00  0.00    +0.000 OA
ATOM      7  C10 UNL     1      23.356  33.112  40.388  0.00  0.00    +0.000 C 
ATOM      8  C11 UNL     1      24.578  33.187  40.963  0.00  0.00    +0.000 C 
ATOM      9  C20 UNL     1      22.712  34.245  39.668  0.00  0.00    +0.000 C 
ATOM     10  O3  UNL     1      23.398  35.237  39.298  0.00  0.00    +0.000 OA
ATOM     11  H9  UNL     1      20.713  30.894  40.066  0.00  0.00    +0.000 HD
ENDROOT
BRANCH   8  12
ATOM     12  C12 UNL     1      25.344  34.427  41.190  0.00  0.00    +0.000 A 
ATOM     13  C13 UNL     1      25.355  35.218  42.339  0.00  0.00    +0.000 A 
ATOM     14  N3  UNL     1      26.290  36.190  42.237  0.00  0.00    +0.000 N 
ATOM     15  C14 UNL     1      26.889  36.004  41.047  0.00  0.00    +0.000 A 
ATOM     16  C15 UNL     1      27.941  36.742  40.507  0.00  0.00    +0.000 A 
ATOM     17  C16 UNL     1      28.439  36.353  39.250  0.00  0.00    +0.000 A 
ATOM     18  C17 UNL     1      27.883  35.246  38.571  0.00  0.00    +0.000 A 
ATOM     19  C18 UNL     1      26.825  34.517  39.143  0.00  0.00    +0.000 A 
ATOM     20  C19 UNL     1      26.349  34.930  40.388  0.00  0.00    +0.000 A 
ATOM     21  H12 UNL     1      26.519  36.915  42.952  0.00  0.00    +0.000 HD
ENDBRANCH   8  12
BRANCH   1  28
ATOM     22  C1  UNL     1      19.401  38.734  40.041  0.00  0.00    +0.000 C 
ATOM     23  C2  UNL     1      19.686  37.564  39.145  0.00  0.00    +0.000 A 
ATOM     24  C3  UNL     1      19.350  37.618  37.784  0.00  0.00    +0.000 A 
ATOM     25  C4  UNL     1      19.659  36.546  36.933  0.00  0.00    +0.000 A 
ATOM     26  C5  UNL     1      19.254  36.589  35.489  0.00  0.00    +0.000 C 
ATOM     27  C6  UNL     1      20.290  35.408  37.456  0.00  0.00    +0.000 A 
ATOM     28  C7  UNL     1      20.643  35.350  38.812  0.00  0.00    +0.000 A 
ATOM     29  C21 UNL     1      20.351  36.436  39.650  0.00  0.00    +0.000 A 
ENDBRANCH   1  28
TORSDOF 2
ENDMDL
MODEL 5
REMARK VINA RESULT:    -6.653      2.001      6.340
REMARK INTER + INTRA:          -7.904
REMARK INTER:                  -7.272
REMARK INTRA:                  -0.632
REMARK UNBOUND:                -0.473
REMARK  Name = CNP0599196_0.pdb
REMARK  4 active torsions:
REMARK  status: ('A' for Active; 'I' for Inactive)
REMARK    1  A    between atoms: C1_1  and  C2_2
REMARK    2  A    between atoms: C4_4  and  C5_5
REMARK    3  A    between atoms: C7_7  and  N1_8
REMARK    4  A    between atoms: C11_15  and  C12_16
REMARK                            x       y       z     vdW  Elec       q    Type
REMARK                         _______ _______ _______ _____ _____    ______ ____
ROOT
ATOM      1  N1  UNL     1      21.294  34.533  38.615  0.00  0.00    +0.000 N 
ATOM      2  C8  UNL     1      22.732  34.552  38.572  0.00  0.00    +0.000 C 
ATOM      3  O1  UNL     1      23.348  35.625  38.327  0.00  0.00    +0.000 OA
ATOM      4  N2  UNL     1      23.477  33.363  38.837  0.00  0.00    +0.000 N 
ATOM      5  C9  UNL     1      22.824  32.110  39.057  0.00  0.00    +0.000 C 
ATOM      6  O2  UNL     1      23.524  31.087  39.287  0.00  0.00    +0.000 OA
ATOM      7  C10 UNL     1      21.347  32.022  38.990  0.00  0.00    +0.000 C 
ATOM      8  C11 UNL     1      20.749  30.809  39.018  0.00  0.00    +0.000 C 
ATOM      9  C20 UNL     1      20.600  33.308  38.928  0.00  0.00    +0.000 C 
ATOM     10  O3  UNL     1      19.370  33.345  39.203  0.00  0.00    +0.000 OA
ATOM     11  H9  UNL     1      24.521  33.405  38.852  0.00  0.00    +0.000 HD
ENDROOT
BRANCH   8  12
ATOM     12  C12 UNL     1      19.322  30.549  38.745  0.00  0.00    +0.000 A 
ATOM     13  C13 UNL     1      18.339  30.176  39.661  0.00  0.00    +0.000 A 
ATOM     14  N3  UNL     1      17.120  30.173  39.073  0.00  0.00    +0.000 N 
ATOM     15  C14 UNL     1      17.321  30.568  37.804  0.00  0.00    +0.000 A 
ATOM     16  C15 UNL     1      16.356  30.750  36.814  0.00  0.00    +0.000 A 
ATOM     17  C16 UNL     1      16.786  31.201  35.552  0.00  0.00    +0.000 A 
ATOM     18  C17 UNL     1      18.154  31.462  35.313  0.00  0.00    +0.000 A 
ATOM     19  C18 UNL     1      19.104  31.274  36.333  0.00  0.00    +0.000 A 
ATOM     20  C19 UNL     1      18.648  30.820  37.571  0.00  0.00    +0.000 A 
ATOM     21  H12 UNL     1      16.208  29.942  39.525  0.00  0.00    +0.000 HD
ENDBRANCH   8  12
BRANCH   1  28
ATOM     22  C1  UNL     1      18.648  37.402  35.519  0.00  0.00    +0.000 C 
ATOM     23  C2  UNL     1      19.276  37.165  36.861  0.00  0.00    +0.000 A 
ATOM     24  C3  UNL     1      19.100  38.095  37.897  0.00  0.00    +0.000 A 
ATOM     25  C4  UNL     1      19.644  37.854  39.168  0.00  0.00    +0.000 A 
ATOM     26  C5  UNL     1      19.494  38.874  40.259  0.00  0.00    +0.000 C 
ATOM     27  C6  UNL     1      20.383  36.684  39.393  0.00  0.00    +0.000 A 
ATOM     28  C7  UNL     1      20.552  35.741  38.369  0.00  0.00    +0.000 A 
ATOM     29  C21 UNL     1      19.985  35.981  37.108  0.00  0.00    +0.000 A 
ENDBRANCH   1  28
TORSDOF 2
ENDMDL
MODEL 6
REMARK VINA RESULT:    -6.558     14.782     17.668
REMARK INTER + INTRA:          -7.798
REMARK INTER:                  -6.951
REMARK INTRA:                  -0.847
REMARK UNBOUND:                -0.473
REMARK  Name = CNP0599196_0.pdb
REMARK  4 active torsions:
REMARK  status: ('A' for Active; 'I' for Inactive)
REMARK    1  A    between atoms: C1_1  and  C2_2
REMARK    2  A    between atoms: C4_4  and  C5_5
REMARK    3  A    between atoms: C7_7  and  N1_8
REMARK    4  A    between atoms: C11_15  and  C12_16
REMARK                            x       y       z     vdW  Elec       q    Type
REMARK                         _______ _______ _______ _____ _____    ______ ____
ROOT
ATOM      1  N1  UNL     1      23.719  48.406  33.432  0.00  0.00    +0.000 N 
ATOM      2  C8  UNL     1      23.339  47.345  34.328  0.00  0.00    +0.000 C 
ATOM      3  O1  UNL     1      22.126  47.161  34.619  0.00  0.00    +0.000 OA
ATOM      4  N2  UNL     1      24.330  46.470  34.870  0.00  0.00    +0.000 N 
ATOM      5  C9  UNL     1      25.722  46.678  34.620  0.00  0.00    +0.000 C 
ATOM      6  O2  UNL     1      26.560  45.880  35.120  0.00  0.00    +0.000 OA
ATOM      7  C10 UNL     1      26.165  47.830  33.801  0.00  0.00    +0.000 C 
ATOM      8  C11 UNL     1      27.482  48.124  33.720  0.00  0.00    +0.000 C 
ATOM      9  C20 UNL     1      25.105  48.587  33.080  0.00  0.00    +0.000 C 
ATOM     10  O3  UNL     1      25.406  49.349  32.120  0.00  0.00    +0.000 OA
ATOM     11  H9  UNL     1      24.032  45.674  35.477  0.00  0.00    +0.000 HD
ENDROOT
BRANCH   8  12
ATOM     12  C12 UNL     1      28.054  49.350  33.131  0.00  0.00    +0.000 A 
ATOM     13  C13 UNL     1      28.249  50.581  33.759  0.00  0.00    +0.000 A 
ATOM     14  N3  UNL     1      28.933  51.422  32.950  0.00  0.00    +0.000 N 
ATOM     15  C14 UNL     1      29.195  50.727  31.829  0.00  0.00    +0.000 A 
ATOM     16  C15 UNL     1      29.907  51.163  30.713  0.00  0.00    +0.000 A 
ATOM     17  C16 UNL     1      30.091  50.254  29.654  0.00  0.00    +0.000 A 
ATOM     18  C17 UNL     1      29.569  48.944  29.738  0.00  0.00    +0.000 A 
ATOM     19  C18 UNL     1      28.859  48.531  30.879  0.00  0.00    +0.000 A 
ATOM     20  C19 UNL     1      28.688  49.456  31.909  0.00  0.00    +0.000 A 
ATOM     21  H12 UNL     1      29.223  52.401  33.168  0.00  0.00    +0.000 HD
ENDBRANCH   8  12
BRANCH   1  28
ATOM     22  C1  UNL     1      20.299  49.314  29.927  0.00  0.00    +0.000 C 
ATOM     23  C2  UNL     1      21.052  49.737  31.154  0.00  0.00    +0.000 A 
ATOM     24  C3  UNL     1      20.742  50.947  31.791  0.00  0.00    +0.000 A 
ATOM     25  C4  UNL     1      21.410  51.323  32.967  0.00  0.00    +0.000 A 
ATOM     26  C5  UNL     1      21.109  52.641  33.617  0.00  0.00    +0.000 C 
ATOM     27  C6  UNL     1      22.405  50.487  33.493  0.00  0.00    +0.000 A 
ATOM     28  C7  UNL     1      22.711  49.268  32.873  0.00  0.00    +0.000 A 
ATOM     29  C21 UNL     1      22.022  48.891  31.710  0.00  0.00    +0.000 A 
ENDBRANCH   1  28
TORSDOF 2
ENDMDL
MODEL 7
REMARK VINA RESULT:    -6.547      3.683      7.066
REMARK INTER + INTRA:          -7.785
REMARK INTER:                  -6.990
REMARK INTRA:                  -0.795
REMARK UNBOUND:                -0.473
REMARK  Name = CNP0599196_0.pdb
REMARK  4 active torsions:
REMARK  status: ('A' for Active; 'I' for Inactive)
REMARK    1  A    between atoms: C1_1  and  C2_2
REMARK    2  A    between atoms: C4_4  and  C5_5
REMARK    3  A    between atoms: C7_7  and  N1_8
REMARK    4  A    between atoms: C11_15  and  C12_16
REMARK                            x       y       z     vdW  Elec       q    Type
REMARK                         _______ _______ _______ _____ _____    ______ ____
ROOT
ATOM      1  N1  UNL     1      19.818  38.899  36.640  0.00  0.00    +0.000 N 
ATOM      2  C8  UNL     1      19.784  40.214  37.223  0.00  0.00    +0.000 C 
ATOM      3  O1  UNL     1      19.756  41.237  36.486  0.00  0.00    +0.000 OA
ATOM      4  N2  UNL     1      19.749  40.373  38.642  0.00  0.00    +0.000 N 
ATOM      5  C9  UNL     1      19.843  39.248  39.518  0.00  0.00    +0.000 C 
ATOM      6  O2  UNL     1      19.809  39.437  40.764  0.00  0.00    +0.000 OA
ATOM      7  C10 UNL     1      20.001  37.884  38.961  0.00  0.00    +0.000 C 
ATOM      8  C11 UNL     1      20.271  36.851  39.791  0.00  0.00    +0.000 C 
ATOM      9  C20 UNL     1      19.817  37.735  37.491  0.00  0.00    +0.000 C 
ATOM     10  O3  UNL     1      19.603  36.598  36.988  0.00  0.00    +0.000 OA
ATOM     11  H9  UNL     1      19.672  41.333  39.048  0.00  0.00    +0.000 HD
ENDROOT
BRANCH   8  12
ATOM     12  C12 UNL     1      20.666  35.493  39.371  0.00  0.00    +0.000 A 
ATOM     13  C13 UNL     1      19.863  34.353  39.326  0.00  0.00    +0.000 A 
ATOM     14  N3  UNL     1      20.529  33.327  38.747  0.00  0.00    +0.000 N 
ATOM     15  C14 UNL     1      21.733  33.815  38.402  0.00  0.00    +0.000 A 
ATOM     16  C15 UNL     1      22.761  33.140  37.746  0.00  0.00    +0.000 A 
ATOM     17  C16 UNL     1      23.936  33.857  37.452  0.00  0.00    +0.000 A 
ATOM     18  C17 UNL     1      24.053  35.218  37.812  0.00  0.00    +0.000 A 
ATOM     19  C18 UNL     1      22.997  35.875  38.469  0.00  0.00    +0.000 A 
ATOM     20  C19 UNL     1      21.848  35.136  38.752  0.00  0.00    +0.000 A 
ATOM     21  H12 UNL     1      20.167  32.363  38.578  0.00  0.00    +0.000 HD
ENDBRANCH   8  12
BRANCH   1  28
ATOM     22  C1  UNL     1      22.362  38.344  32.393  0.00  0.00    +0.000 C 
ATOM     23  C2  UNL     1      21.059  38.499  33.122  0.00  0.00    +0.000 A 
ATOM     24  C3  UNL     1      19.846  38.445  32.420  0.00  0.00    +0.000 A 
ATOM     25  C4  UNL     1      18.625  38.540  33.104  0.00  0.00    +0.000 A 
ATOM     26  C5  UNL     1      17.331  38.531  32.343  0.00  0.00    +0.000 C 
ATOM     27  C6  UNL     1      18.623  38.708  34.496  0.00  0.00    +0.000 A 
ATOM     28  C7  UNL     1      19.830  38.748  35.209  0.00  0.00    +0.000 A 
ATOM     29  C21 UNL     1      21.045  38.629  34.519  0.00  0.00    +0.000 A 
ENDBRANCH   1  28
TORSDOF 2
ENDMDL
MODEL 8
REMARK VINA RESULT:    -6.539     14.189     18.876
REMARK INTER + INTRA:          -7.777
REMARK INTER:                  -6.975
REMARK INTRA:                  -0.801
REMARK UNBOUND:                -0.473
REMARK  Name = CNP0599196_0.pdb
REMARK  4 active torsions:
REMARK  status: ('A' for Active; 'I' for Inactive)
REMARK    1  A    between atoms: C1_1  and  C2_2
REMARK    2  A    between atoms: C4_4  and  C5_5
REMARK    3  A    between atoms: C7_7  and  N1_8
REMARK    4  A    between atoms: C11_15  and  C12_16
REMARK                            x       y       z     vdW  Elec       q    Type
REMARK                         _______ _______ _______ _____ _____    ______ ____
ROOT
ATOM      1  N1  UNL     1      26.072  51.124  32.786  0.00  0.00    +0.000 N 
ATOM      2  C8  UNL     1      25.456  52.352  33.212  0.00  0.00    +0.000 C 
ATOM      3  O1  UNL     1      26.157  53.382  33.407  0.00  0.00    +0.000 OA
ATOM      4  N2  UNL     1      24.041  52.427  33.388  0.00  0.00    +0.000 N 
ATOM      5  C9  UNL     1      23.212  51.271  33.241  0.00  0.00    +0.000 C 
ATOM      6  O2  UNL     1      21.968  51.384  33.406  0.00  0.00    +0.000 OA
ATOM      7  C10 UNL     1      23.820  49.958  32.920  0.00  0.00    +0.000 C 
ATOM      8  C11 UNL     1      23.057  48.842  32.961  0.00  0.00    +0.000 C 
ATOM      9  C20 UNL     1      25.257  49.961  32.534  0.00  0.00    +0.000 C 
ATOM     10  O3  UNL     1      25.759  48.970  31.934  0.00  0.00    +0.000 OA
ATOM     11  H9  UNL     1      23.604  53.339  33.648  0.00  0.00    +0.000 HD
ENDROOT
BRANCH   8  12
ATOM     12  C12 UNL     1      23.559  47.456  32.882  0.00  0.00    +0.000 A 
ATOM     13  C13 UNL     1      23.583  46.627  31.761  0.00  0.00    +0.000 A 
ATOM     14  N3  UNL     1      24.251  45.482  32.032  0.00  0.00    +0.000 N 
ATOM     15  C14 UNL     1      24.672  45.592  33.304  0.00  0.00    +0.000 A 
ATOM     16  C15 UNL     1      25.433  44.672  34.024  0.00  0.00    +0.000 A 
ATOM     17  C16 UNL     1      25.792  45.006  35.343  0.00  0.00    +0.000 A 
ATOM     18  C17 UNL     1      25.391  46.239  35.904  0.00  0.00    +0.000 A 
ATOM     19  C18 UNL     1      24.628  47.150  35.152  0.00  0.00    +0.000 A 
ATOM     20  C19 UNL     1      24.282  46.788  33.850  0.00  0.00    +0.000 A 
ATOM     21  H12 UNL     1      24.427  44.690  31.375  0.00  0.00    +0.000 HD
ENDBRANCH   8  12
BRANCH   1  28
ATOM     22  C1  UNL     1      30.629  50.217  34.581  0.00  0.00    +0.000 C 
ATOM     23  C2  UNL     1      29.732  50.647  33.458  0.00  0.00    +0.000 A 
ATOM     24  C3  UNL     1      30.272  50.944  32.197  0.00  0.00    +0.000 A 
ATOM     25  C4  UNL     1      29.432  51.300  31.131  0.00  0.00    +0.000 A 
ATOM     26  C5  UNL     1      30.017  51.664  29.798  0.00  0.00    +0.000 C 
ATOM     27  C6  UNL     1      28.047  51.375  31.337  0.00  0.00    +0.000 A 
ATOM     28  C7  UNL     1      27.496  51.065  32.589  0.00  0.00    +0.000 A 
ATOM     29  C21 UNL     1      28.342  50.689  33.643  0.00  0.00    +0.000 A 
ENDBRANCH   1  28
TORSDOF 2
ENDMDL
MODEL 9
REMARK VINA RESULT:    -6.482      4.289      6.764
REMARK INTER + INTRA:          -7.713
REMARK INTER:                  -6.955
REMARK INTRA:                  -0.758
REMARK UNBOUND:                -0.473
REMARK  Name = CNP0599196_0.pdb
REMARK  4 active torsions:
REMARK  status: ('A' for Active; 'I' for Inactive)
REMARK    1  A    between atoms: C1_1  and  C2_2
REMARK    2  A    between atoms: C4_4  and  C5_5
REMARK    3  A    between atoms: C7_7  and  N1_8
REMARK    4  A    between atoms: C11_15  and  C12_16
REMARK                            x       y       z     vdW  Elec       q    Type
REMARK                         _______ _______ _______ _____ _____    ______ ____
ROOT
ATOM      1  N1  UNL     1      19.143  38.790  35.193  0.00  0.00    +0.000 N 
ATOM      2  C8  UNL     1      19.233  40.220  35.059  0.00  0.00    +0.000 C 
ATOM      3  O1  UNL     1      19.001  40.772  33.949  0.00  0.00    +0.000 OA
ATOM      4  N2  UNL     1      19.555  41.032  36.190  0.00  0.00    +0.000 N 
ATOM      5  C9  UNL     1      19.888  40.449  37.452  0.00  0.00    +0.000 C 
ATOM      6  O2  UNL     1      20.166  41.204  38.422  0.00  0.00    +0.000 OA
ATOM      7  C10 UNL     1      19.925  38.975  37.602  0.00  0.00    +0.000 C 
ATOM      8  C11 UNL     1      20.414  38.432  38.740  0.00  0.00    +0.000 C 
ATOM      9  C20 UNL     1      19.378  38.172  36.474  0.00  0.00    +0.000 C 
ATOM     10  O3  UNL     1      19.065  36.962  36.646  0.00  0.00    +0.000 OA
ATOM     11  H9  UNL     1      19.566  42.071  36.088  0.00  0.00    +0.000 HD
ENDROOT
BRANCH   8  12
ATOM     12  C12 UNL     1      20.715  37.003  38.949  0.00  0.00    +0.000 A 
ATOM     13  C13 UNL     1      19.886  36.038  39.522  0.00  0.00    +0.000 A 
ATOM     14  N3  UNL     1      20.442  34.809  39.409  0.00  0.00    +0.000 N 
ATOM     15  C14 UNL     1      21.599  34.985  38.747  0.00  0.00    +0.000 A 
ATOM     16  C15 UNL     1      22.511  34.003  38.365  0.00  0.00    +0.000 A 
ATOM     17  C16 UNL     1      23.651  34.408  37.647  0.00  0.00    +0.000 A 
ATOM     18  C17 UNL     1      23.849  35.770  37.327  0.00  0.00    +0.000 A 
ATOM     19  C18 UNL     1      22.909  36.739  37.721  0.00  0.00    +0.000 A 
ATOM     20  C19 UNL     1      21.792  36.307  38.437  0.00  0.00    +0.000 A 
ATOM     21  H12 UNL     1      20.036  33.907  39.741  0.00  0.00    +0.000 HD
ENDBRANCH   8  12
BRANCH   1  28
ATOM     22  C1  UNL     1      15.693  36.431  32.484  0.00  0.00    +0.000 C 
ATOM     23  C2  UNL     1      17.124  36.807  32.730  0.00  0.00    +0.000 A 
ATOM     24  C3  UNL     1      18.123  36.418  31.825  0.00  0.00    +0.000 A 
ATOM     25  C4  UNL     1      19.455  36.808  32.026  0.00  0.00    +0.000 A 
ATOM     26  C5  UNL     1      20.527  36.349  31.081  0.00  0.00    +0.000 C 
ATOM     27  C6  UNL     1      19.788  37.577  33.151  0.00  0.00    +0.000 A 
ATOM     28  C7  UNL     1      18.796  37.983  34.053  0.00  0.00    +0.000 A 
ATOM     29  C21 UNL     1      17.463  37.607  33.832  0.00  0.00    +0.000 A 
ENDBRANCH   1  28
TORSDOF 2
ENDMDL
MODEL 10
REMARK VINA RESULT:    -6.468      4.043      7.232
REMARK INTER + INTRA:          -7.697
REMARK INTER:                  -6.888
REMARK INTRA:                  -0.809
REMARK UNBOUND:                -0.473
REMARK  Name = CNP0599196_0.pdb
REMARK  4 active torsions:
REMARK  status: ('A' for Active; 'I' for Inactive)
REMARK    1  A    between atoms: C1_1  and  C2_2
REMARK    2  A    between atoms: C4_4  and  C5_5
REMARK    3  A    between atoms: C7_7  and  N1_8
REMARK    4  A    between atoms: C11_15  and  C12_16
REMARK                            x       y       z     vdW  Elec       q    Type
REMARK                         _______ _______ _______ _____ _____    ______ ____
ROOT
ATOM      1  N1  UNL     1      19.266  38.808  35.031  0.00  0.00    +0.000 N 
ATOM      2  C8  UNL     1      19.014  40.221  35.137  0.00  0.00    +0.000 C 
ATOM      3  O1  UNL     1      18.431  40.835  34.203  0.00  0.00    +0.000 OA
ATOM      4  N2  UNL     1      19.392  40.935  36.315  0.00  0.00    +0.000 N 
ATOM      5  C9  UNL     1      20.110  40.295  37.373  0.00  0.00    +0.000 C 
ATOM      6  O2  UNL     1      20.424  40.966  38.393  0.00  0.00    +0.000 OA
ATOM      7  C10 UNL     1      20.496  38.870  37.252  0.00  0.00    +0.000 C 
ATOM      8  C11 UNL     1      21.328  38.324  38.168  0.00  0.00    +0.000 C 
ATOM      9  C20 UNL     1      19.902  38.108  36.119  0.00  0.00    +0.000 C 
ATOM     10  O3  UNL     1      19.903  36.846  36.130  0.00  0.00    +0.000 OA
ATOM     11  H9  UNL     1      19.156  41.949  36.397  0.00  0.00    +0.000 HD
ENDROOT
BRANCH   8  12
ATOM     12  C12 UNL     1      21.968  36.998  38.065  0.00  0.00    +0.000 A 
ATOM     13  C13 UNL     1      23.216  36.701  37.519  0.00  0.00    +0.000 A 
ATOM     14  N3  UNL     1      23.531  35.403  37.734  0.00  0.00    +0.000 N 
ATOM     15  C14 UNL     1      22.507  34.885  38.435  0.00  0.00    +0.000 A 
ATOM     16  C15 UNL     1      22.388  33.583  38.919  0.00  0.00    +0.000 A 
ATOM     17  C16 UNL     1      21.235  33.261  39.660  0.00  0.00    +0.000 A 
ATOM     18  C17 UNL     1      20.243  34.237  39.901  0.00  0.00    +0.000 A 
ATOM     19  C18 UNL     1      20.392  35.544  39.404  0.00  0.00    +0.000 A 
ATOM     20  C19 UNL     1      21.542  35.832  38.668  0.00  0.00    +0.000 A 
ATOM     21  H12 UNL     1      24.406  34.915  37.442  0.00  0.00    +0.000 HD
ENDBRANCH   8  12
BRANCH   1  28
ATOM     22  C1  UNL     1      20.302  37.099  30.469  0.00  0.00    +0.000 C 
ATOM     23  C2  UNL     1      19.343  37.270  31.610  0.00  0.00    +0.000 A 
ATOM     24  C3  UNL     1      18.067  36.690  31.554  0.00  0.00    +0.000 A 
ATOM     25  C4  UNL     1      17.186  36.805  32.640  0.00  0.00    +0.000 A 
ATOM     26  C5  UNL     1      15.805  36.225  32.555  0.00  0.00    +0.000 C 
ATOM     27  C6  UNL     1      17.582  37.522  33.778  0.00  0.00    +0.000 A 
ATOM     28  C7  UNL     1      18.860  38.093  33.850  0.00  0.00    +0.000 A 
ATOM     29  C21 UNL     1      19.742  37.953  32.769  0.00  0.00    +0.000 A 
ENDBRANCH   1  28
TORSDOF 2
ENDMDL
