MODEL 1
REMARK VINA RESULT:    -8.358      0.000      0.000
REMARK INTER + INTRA:          -9.467
REMARK INTER:                  -8.847
REMARK INTRA:                  -0.621
REMARK UNBOUND:                -0.621
REMARK  Name = CNP0178720_1.pdb
REMARK  1 active torsions:
REMARK  status: ('A' for Active; 'I' for Inactive)
REMARK    1  A    between atoms: N3_19  and  C14_20
REMARK                            x       y       z     vdW  Elec       q    Type
REMARK                         _______ _______ _______ _____ _____    ______ ____
ROOT
ATOM      1  O1  UNL     1      57.254  57.311  72.833  0.00  0.00    +0.000 OA
ATOM      2  C1  UNL     1      57.236  56.202  72.236  0.00  0.00    +0.000 C 
ATOM      3  C2  UNL     1      57.207  56.066  70.740  0.00  0.00    +0.000 C 
ATOM      4  C3  UNL     1      56.943  54.568  70.519  0.00  0.00    +0.000 C 
ATOM      5  C4  UNL     1      58.090  54.067  69.645  0.00  0.00    +0.000 C 
ATOM      6  N1  UNL     1      59.180  55.032  69.747  0.00  0.00    +0.000 NA
ATOM      7  C5  UNL     1      58.557  56.329  70.030  0.00  0.00    +0.000 C 
ATOM      8  C6  UNL     1      58.351  57.150  68.771  0.00  0.00    +0.000 C 
ATOM      9  O2  UNL     1      57.645  56.789  67.793  0.00  0.00    +0.000 OA
ATOM     10  N2  UNL     1      59.045  58.391  68.800  0.00  0.00    +0.000 N 
ATOM     11  C7  UNL     1      59.754  58.385  70.024  0.00  0.00    +0.000 A 
ATOM     12  C8  UNL     1      60.656  59.357  70.455  0.00  0.00    +0.000 A 
ATOM     13  C9  UNL     1      61.345  59.140  71.659  0.00  0.00    +0.000 A 
ATOM     14  C10 UNL     1      61.142  57.955  72.392  0.00  0.00    +0.000 A 
ATOM     15  C11 UNL     1      60.240  56.983  71.930  0.00  0.00    +0.000 A 
ATOM     16  C12 UNL     1      59.526  57.233  70.752  0.00  0.00    +0.000 A 
ATOM     17  C13 UNL     1      56.975  53.984  71.899  0.00  0.00    +0.000 C 
ATOM     18  O3  UNL     1      56.877  52.749  72.137  0.00  0.00    +0.000 OA
ATOM     19  N3  UNL     1      57.143  54.960  72.914  0.00  0.00    +0.000 N 
ATOM     20  H5  UNL     1      59.718  55.051  68.847  0.00  0.00    +0.000 HD
ATOM     21  H6  UNL     1      59.085  59.113  68.047  0.00  0.00    +0.000 HD
ENDROOT
BRANCH  19  22
ATOM     22  C14 UNL     1      57.210  54.742  74.334  0.00  0.00    +0.000 A 
ATOM     23  C15 UNL     1      56.099  55.024  75.147  0.00  0.00    +0.000 A 
ATOM     24  C16 UNL     1      56.157  54.819  76.527  0.00  0.00    +0.000 A 
ATOM     25  C17 UNL     1      57.327  54.323  77.119  0.00  0.00    +0.000 A 
ATOM     26  C18 UNL     1      57.396  54.112  78.505  0.00  0.00    +0.000 A 
ATOM     27  C19 UNL     1      58.568  53.616  79.081  0.00  0.00    +0.000 A 
ATOM     28  C20 UNL     1      59.677  53.327  78.282  0.00  0.00    +0.000 A 
ATOM     29  C21 UNL     1      59.622  53.532  76.901  0.00  0.00    +0.000 A 
ATOM     30  C22 UNL     1      58.451  54.033  76.309  0.00  0.00    +0.000 A 
ATOM     31  C23 UNL     1      58.384  54.243  74.923  0.00  0.00    +0.000 A 
ENDBRANCH  19  22
TORSDOF 1
ENDMDL
MODEL 2
REMARK VINA RESULT:    -8.332      4.708      8.942
REMARK INTER + INTRA:          -9.439
REMARK INTER:                  -8.772
REMARK INTRA:                  -0.667
REMARK UNBOUND:                -0.621
REMARK  Name = CNP0178720_1.pdb
REMARK  1 active torsions:
REMARK  status: ('A' for Active; 'I' for Inactive)
REMARK    1  A    between atoms: N3_19  and  C14_20
REMARK                            x       y       z     vdW  Elec       q    Type
REMARK                         _______ _______ _______ _____ _____    ______ ____
ROOT
ATOM      1  O1  UNL     1      63.859  54.261  76.666  0.00  0.00    +0.000 OA
ATOM      2  C1  UNL     1      63.783  53.318  75.834  0.00  0.00    +0.000 C 
ATOM      3  C2  UNL     1      63.942  51.870  76.204  0.00  0.00    +0.000 C 
ATOM      4  C3  UNL     1      64.018  51.157  74.845  0.00  0.00    +0.000 C 
ATOM      5  C4  UNL     1      62.906  50.111  74.860  0.00  0.00    +0.000 C 
ATOM      6  N1  UNL     1      61.954  50.490  75.899  0.00  0.00    +0.000 NA
ATOM      7  C5  UNL     1      62.718  51.234  76.906  0.00  0.00    +0.000 C 
ATOM      8  C6  UNL     1      63.158  50.349  78.056  0.00  0.00    +0.000 C 
ATOM      9  O2  UNL     1      63.902  49.339  77.934  0.00  0.00    +0.000 OA
ATOM     10  N2  UNL     1      62.642  50.773  79.311  0.00  0.00    +0.000 N 
ATOM     11  C7  UNL     1      61.820  51.885  79.011  0.00  0.00    +0.000 A 
ATOM     12  C8  UNL     1      61.023  52.584  79.916  0.00  0.00    +0.000 A 
ATOM     13  C9  UNL     1      60.194  53.605  79.424  0.00  0.00    +0.000 A 
ATOM     14  C10 UNL     1      60.159  53.890  78.045  0.00  0.00    +0.000 A 
ATOM     15  C11 UNL     1      60.960  53.163  77.151  0.00  0.00    +0.000 A 
ATOM     16  C12 UNL     1      61.815  52.179  77.661  0.00  0.00    +0.000 A 
ATOM     17  C13 UNL     1      63.769  52.245  73.845  0.00  0.00    +0.000 C 
ATOM     18  O3  UNL     1      63.673  52.046  72.604  0.00  0.00    +0.000 OA
ATOM     19  N3  UNL     1      63.637  53.527  74.439  0.00  0.00    +0.000 N 
ATOM     20  H5  UNL     1      61.515  49.629  76.306  0.00  0.00    +0.000 HD
ATOM     21  H6  UNL     1      62.777  50.316  80.240  0.00  0.00    +0.000 HD
ENDROOT
BRANCH  19  22
ATOM     22  C14 UNL     1      63.400  54.779  73.772  0.00  0.00    +0.000 A 
ATOM     23  C15 UNL     1      64.473  55.629  73.459  0.00  0.00    +0.000 A 
ATOM     24  C16 UNL     1      64.252  56.848  72.814  0.00  0.00    +0.000 A 
ATOM     25  C17 UNL     1      62.951  57.237  72.467  0.00  0.00    +0.000 A 
ATOM     26  C18 UNL     1      62.717  58.459  71.819  0.00  0.00    +0.000 A 
ATOM     27  C19 UNL     1      61.414  58.833  71.476  0.00  0.00    +0.000 A 
ATOM     28  C20 UNL     1      60.339  57.993  71.777  0.00  0.00    +0.000 A 
ATOM     29  C21 UNL     1      60.558  56.773  72.423  0.00  0.00    +0.000 A 
ATOM     30  C22 UNL     1      61.862  56.386  72.774  0.00  0.00    +0.000 A 
ATOM     31  C23 UNL     1      62.094  55.163  73.423  0.00  0.00    +0.000 A 
ENDBRANCH  19  22
TORSDOF 1
ENDMDL
MODEL 3
REMARK VINA RESULT:    -8.329      3.716      5.567
REMARK INTER + INTRA:          -9.437
REMARK INTER:                  -8.923
REMARK INTRA:                  -0.514
REMARK UNBOUND:                -0.621
REMARK  Name = CNP0178720_1.pdb
REMARK  1 active torsions:
REMARK  status: ('A' for Active; 'I' for Inactive)
REMARK    1  A    between atoms: N3_19  and  C14_20
REMARK                            x       y       z     vdW  Elec       q    Type
REMARK                         _______ _______ _______ _____ _____    ______ ____
ROOT
ATOM      1  O1  UNL     1      60.876  54.254  71.125  0.00  0.00    +0.000 OA
ATOM      2  C1  UNL     1      61.569  55.282  71.345  0.00  0.00    +0.000 C 
ATOM      3  C2  UNL     1      61.313  56.611  70.693  0.00  0.00    +0.000 C 
ATOM      4  C3  UNL     1      62.544  57.446  71.079  0.00  0.00    +0.000 C 
ATOM      5  C4  UNL     1      62.001  58.692  71.774  0.00  0.00    +0.000 C 
ATOM      6  N1  UNL     1      60.636  58.402  72.203  0.00  0.00    +0.000 NA
ATOM      7  C5  UNL     1      60.113  57.403  71.266  0.00  0.00    +0.000 C 
ATOM      8  C6  UNL     1      59.305  58.036  70.149  0.00  0.00    +0.000 C 
ATOM      9  O2  UNL     1      59.761  58.875  69.327  0.00  0.00    +0.000 OA
ATOM     10  N2  UNL     1      57.957  57.586  70.117  0.00  0.00    +0.000 N 
ATOM     11  C7  UNL     1      57.836  56.713  71.224  0.00  0.00    +0.000 A 
ATOM     12  C8  UNL     1      56.664  56.097  71.660  0.00  0.00    +0.000 A 
ATOM     13  C9  UNL     1      56.710  55.337  72.839  0.00  0.00    +0.000 A 
ATOM     14  C10 UNL     1      57.909  55.227  73.570  0.00  0.00    +0.000 A 
ATOM     15  C11 UNL     1      59.073  55.870  73.120  0.00  0.00    +0.000 A 
ATOM     16  C12 UNL     1      59.025  56.587  71.919  0.00  0.00    +0.000 A 
ATOM     17  C13 UNL     1      63.311  56.557  72.012  0.00  0.00    +0.000 C 
ATOM     18  O3  UNL     1      64.358  56.916  72.615  0.00  0.00    +0.000 OA
ATOM     19  N3  UNL     1      62.730  55.272  72.160  0.00  0.00    +0.000 N 
ATOM     20  H5  UNL     1      60.068  59.283  72.185  0.00  0.00    +0.000 HD
ATOM     21  H6  UNL     1      57.201  57.894  69.466  0.00  0.00    +0.000 HD
ENDROOT
BRANCH  19  22
ATOM     22  C14 UNL     1      63.210  54.183  72.969  0.00  0.00    +0.000 A 
ATOM     23  C15 UNL     1      63.714  53.020  72.364  0.00  0.00    +0.000 A 
ATOM     24  C16 UNL     1      64.179  51.957  73.141  0.00  0.00    +0.000 A 
ATOM     25  C17 UNL     1      64.152  52.042  74.540  0.00  0.00    +0.000 A 
ATOM     26  C18 UNL     1      64.618  50.980  75.331  0.00  0.00    +0.000 A 
ATOM     27  C19 UNL     1      64.587  51.079  76.725  0.00  0.00    +0.000 A 
ATOM     28  C20 UNL     1      64.094  52.233  77.338  0.00  0.00    +0.000 A 
ATOM     29  C21 UNL     1      63.627  53.297  76.562  0.00  0.00    +0.000 A 
ATOM     30  C22 UNL     1      63.650  53.211  75.160  0.00  0.00    +0.000 A 
ATOM     31  C23 UNL     1      63.184  54.273  74.370  0.00  0.00    +0.000 A 
ENDBRANCH  19  22
TORSDOF 1
ENDMDL
MODEL 4
REMARK VINA RESULT:    -8.220      3.039      5.262
REMARK INTER + INTRA:          -9.321
REMARK INTER:                  -8.637
REMARK INTRA:                  -0.684
REMARK UNBOUND:                -0.621
REMARK  Name = CNP0178720_1.pdb
REMARK  1 active torsions:
REMARK  status: ('A' for Active; 'I' for Inactive)
REMARK    1  A    between atoms: N3_19  and  C14_20
REMARK                            x       y       z     vdW  Elec       q    Type
REMARK                         _______ _______ _______ _____ _____    ______ ____
ROOT
ATOM      1  O1  UNL     1      61.156  54.441  69.209  0.00  0.00    +0.000 OA
ATOM      2  C1  UNL     1      60.762  55.598  69.513  0.00  0.00    +0.000 C 
ATOM      3  C2  UNL     1      60.008  56.494  68.571  0.00  0.00    +0.000 C 
ATOM      4  C3  UNL     1      59.982  57.846  69.301  0.00  0.00    +0.000 C 
ATOM      5  C4  UNL     1      58.508  58.228  69.417  0.00  0.00    +0.000 C 
ATOM      6  N1  UNL     1      57.719  57.014  69.230  0.00  0.00    +0.000 NA
ATOM      7  C5  UNL     1      58.516  56.132  68.373  0.00  0.00    +0.000 C 
ATOM      8  C6  UNL     1      58.125  56.249  66.912  0.00  0.00    +0.000 C 
ATOM      9  O2  UNL     1      58.194  57.311  66.239  0.00  0.00    +0.000 OA
ATOM     10  N2  UNL     1      57.662  55.021  66.363  0.00  0.00    +0.000 N 
ATOM     11  C7  UNL     1      57.682  54.107  67.442  0.00  0.00    +0.000 A 
ATOM     12  C8  UNL     1      57.223  52.791  67.412  0.00  0.00    +0.000 A 
ATOM     13  C9  UNL     1      57.230  52.055  68.607  0.00  0.00    +0.000 A 
ATOM     14  C10 UNL     1      57.669  52.650  69.807  0.00  0.00    +0.000 A 
ATOM     15  C11 UNL     1      58.112  53.981  69.816  0.00  0.00    +0.000 A 
ATOM     16  C12 UNL     1      58.142  54.689  68.609  0.00  0.00    +0.000 A 
ATOM     17  C13 UNL     1      60.606  57.555  70.632  0.00  0.00    +0.000 C 
ATOM     18  O3  UNL     1      60.697  58.403  71.561  0.00  0.00    +0.000 OA
ATOM     19  N3  UNL     1      61.073  56.221  70.749  0.00  0.00    +0.000 N 
ATOM     20  H5  UNL     1      56.801  57.257  68.786  0.00  0.00    +0.000 HD
ATOM     21  H6  UNL     1      57.310  54.853  65.394  0.00  0.00    +0.000 HD
ENDROOT
BRANCH  19  22
ATOM     22  C14 UNL     1      61.722  55.618  71.883  0.00  0.00    +0.000 A 
ATOM     23  C15 UNL     1      63.122  55.643  71.992  0.00  0.00    +0.000 A 
ATOM     24  C16 UNL     1      63.761  55.057  73.087  0.00  0.00    +0.000 A 
ATOM     25  C17 UNL     1      63.009  54.439  74.095  0.00  0.00    +0.000 A 
ATOM     26  C18 UNL     1      63.640  53.848  75.201  0.00  0.00    +0.000 A 
ATOM     27  C19 UNL     1      62.878  53.237  76.200  0.00  0.00    +0.000 A 
ATOM     28  C20 UNL     1      61.484  53.211  76.105  0.00  0.00    +0.000 A 
ATOM     29  C21 UNL     1      60.843  53.796  75.009  0.00  0.00    +0.000 A 
ATOM     30  C22 UNL     1      61.597  54.412  73.997  0.00  0.00    +0.000 A 
ATOM     31  C23 UNL     1      60.964  55.002  72.892  0.00  0.00    +0.000 A 
ENDBRANCH  19  22
TORSDOF 1
ENDMDL
MODEL 5
REMARK VINA RESULT:    -8.192      3.656      8.210
REMARK INTER + INTRA:          -9.292
REMARK INTER:                  -8.747
REMARK INTRA:                  -0.544
REMARK UNBOUND:                -0.621
REMARK  Name = CNP0178720_1.pdb
REMARK  1 active torsions:
REMARK  status: ('A' for Active; 'I' for Inactive)
REMARK    1  A    between atoms: N3_19  and  C14_20
REMARK                            x       y       z     vdW  Elec       q    Type
REMARK                         _______ _______ _______ _____ _____    ______ ____
ROOT
ATOM      1  O1  UNL     1      60.324  55.609  68.364  0.00  0.00    +0.000 OA
ATOM      2  C1  UNL     1      59.212  55.201  68.792  0.00  0.00    +0.000 C 
ATOM      3  C2  UNL     1      58.904  55.006  70.250  0.00  0.00    +0.000 C 
ATOM      4  C3  UNL     1      57.551  54.277  70.238  0.00  0.00    +0.000 C 
ATOM      5  C4  UNL     1      56.607  55.136  71.076  0.00  0.00    +0.000 C 
ATOM      6  N1  UNL     1      57.183  56.475  71.160  0.00  0.00    +0.000 NA
ATOM      7  C5  UNL     1      58.635  56.307  71.044  0.00  0.00    +0.000 C 
ATOM      8  C6  UNL     1      59.314  56.259  72.399  0.00  0.00    +0.000 C 
ATOM      9  O2  UNL     1      59.074  55.396  73.286  0.00  0.00    +0.000 OA
ATOM     10  N2  UNL     1      60.265  57.301  72.580  0.00  0.00    +0.000 N 
ATOM     11  C7  UNL     1      60.189  58.074  71.397  0.00  0.00    +0.000 A 
ATOM     12  C8  UNL     1      60.873  59.263  71.149  0.00  0.00    +0.000 A 
ATOM     13  C9  UNL     1      60.602  59.951  69.956  0.00  0.00    +0.000 A 
ATOM     14  C10 UNL     1      59.644  59.455  69.050  0.00  0.00    +0.000 A 
ATOM     15  C11 UNL     1      58.957  58.263  69.328  0.00  0.00    +0.000 A 
ATOM     16  C12 UNL     1      59.269  57.564  70.500  0.00  0.00    +0.000 A 
ATOM     17  C13 UNL     1      57.165  54.243  68.791  0.00  0.00    +0.000 C 
ATOM     18  O3  UNL     1      56.066  53.790  68.371  0.00  0.00    +0.000 OA
ATOM     19  N3  UNL     1      58.158  54.788  67.937  0.00  0.00    +0.000 N 
ATOM     20  H5  UNL     1      56.918  56.916  72.073  0.00  0.00    +0.000 HD
ATOM     21  H6  UNL     1      60.836  57.497  73.431  0.00  0.00    +0.000 HD
ENDROOT
BRANCH  19  22
ATOM     22  C14 UNL     1      58.111  54.903  66.503  0.00  0.00    +0.000 A 
ATOM     23  C15 UNL     1      58.084  56.169  65.895  0.00  0.00    +0.000 A 
ATOM     24  C16 UNL     1      58.035  56.289  64.505  0.00  0.00    +0.000 A 
ATOM     25  C17 UNL     1      58.017  55.144  63.697  0.00  0.00    +0.000 A 
ATOM     26  C18 UNL     1      57.969  55.254  62.299  0.00  0.00    +0.000 A 
ATOM     27  C19 UNL     1      57.954  54.103  61.505  0.00  0.00    +0.000 A 
ATOM     28  C20 UNL     1      57.987  52.839  62.099  0.00  0.00    +0.000 A 
ATOM     29  C21 UNL     1      58.035  52.715  63.490  0.00  0.00    +0.000 A 
ATOM     30  C22 UNL     1      58.048  53.864  64.299  0.00  0.00    +0.000 A 
ATOM     31  C23 UNL     1      58.096  53.752  65.698  0.00  0.00    +0.000 A 
ENDBRANCH  19  22
TORSDOF 1
ENDMDL
MODEL 6
REMARK VINA RESULT:    -8.029      3.916      7.093
REMARK INTER + INTRA:          -9.119
REMARK INTER:                  -8.548
REMARK INTRA:                  -0.571
REMARK UNBOUND:                -0.621
REMARK  Name = CNP0178720_1.pdb
REMARK  1 active torsions:
REMARK  status: ('A' for Active; 'I' for Inactive)
REMARK    1  A    between atoms: N3_19  and  C14_20
REMARK                            x       y       z     vdW  Elec       q    Type
REMARK                         _______ _______ _______ _____ _____    ______ ____
ROOT
ATOM      1  O1  UNL     1      58.628  54.196  71.152  0.00  0.00    +0.000 OA
ATOM      2  C1  UNL     1      58.632  55.317  70.577  0.00  0.00    +0.000 C 
ATOM      3  C2  UNL     1      59.171  56.571  71.207  0.00  0.00    +0.000 C 
ATOM      4  C3  UNL     1      58.728  57.680  70.240  0.00  0.00    +0.000 C 
ATOM      5  C4  UNL     1      60.006  58.409  69.829  0.00  0.00    +0.000 C 
ATOM      6  N1  UNL     1      61.133  57.526  70.118  0.00  0.00    +0.000 NA
ATOM      7  C5  UNL     1      60.715  56.678  71.239  0.00  0.00    +0.000 C 
ATOM      8  C6  UNL     1      61.188  57.221  72.573  0.00  0.00    +0.000 C 
ATOM      9  O2  UNL     1      60.870  58.349  73.037  0.00  0.00    +0.000 OA
ATOM     10  N2  UNL     1      62.042  56.320  73.267  0.00  0.00    +0.000 N 
ATOM     11  C7  UNL     1      62.193  55.216  72.396  0.00  0.00    +0.000 A 
ATOM     12  C8  UNL     1      63.022  54.114  72.603  0.00  0.00    +0.000 A 
ATOM     13  C9  UNL     1      63.122  53.154  71.583  0.00  0.00    +0.000 A 
ATOM     14  C10 UNL     1      62.418  53.323  70.375  0.00  0.00    +0.000 A 
ATOM     15  C11 UNL     1      61.601  54.449  70.183  0.00  0.00    +0.000 A 
ATOM     16  C12 UNL     1      61.475  55.375  71.225  0.00  0.00    +0.000 A 
ATOM     17  C13 UNL     1      58.097  56.940  69.099  0.00  0.00    +0.000 C 
ATOM     18  O3  UNL     1      57.674  57.501  68.052  0.00  0.00    +0.000 OA
ATOM     19  N3  UNL     1      58.038  55.539  69.309  0.00  0.00    +0.000 N 
ATOM     20  H5  UNL     1      61.975  58.101  70.362  0.00  0.00    +0.000 HD
ATOM     21  H6  UNL     1      62.516  56.475  74.184  0.00  0.00    +0.000 HD
ENDROOT
BRANCH  19  22
ATOM     22  C14 UNL     1      57.493  54.544  68.423  0.00  0.00    +0.000 A 
ATOM     23  C15 UNL     1      58.208  54.143  67.283  0.00  0.00    +0.000 A 
ATOM     24  C16 UNL     1      57.685  53.181  66.416  0.00  0.00    +0.000 A 
ATOM     25  C17 UNL     1      56.437  52.599  66.678  0.00  0.00    +0.000 A 
ATOM     26  C18 UNL     1      55.903  51.631  65.814  0.00  0.00    +0.000 A 
ATOM     27  C19 UNL     1      54.658  51.057  66.088  0.00  0.00    +0.000 A 
ATOM     28  C20 UNL     1      53.940  51.444  67.223  0.00  0.00    +0.000 A 
ATOM     29  C21 UNL     1      54.461  52.407  68.091  0.00  0.00    +0.000 A 
ATOM     30  C22 UNL     1      55.710  52.993  67.826  0.00  0.00    +0.000 A 
ATOM     31  C23 UNL     1      56.243  53.962  68.691  0.00  0.00    +0.000 A 
ENDBRANCH  19  22
TORSDOF 1
ENDMDL
MODEL 7
REMARK VINA RESULT:    -7.494      2.540      3.412
REMARK INTER + INTRA:          -8.553
REMARK INTER:                  -8.074
REMARK INTRA:                  -0.479
REMARK UNBOUND:                -0.621
REMARK  Name = CNP0178720_1.pdb
REMARK  1 active torsions:
REMARK  status: ('A' for Active; 'I' for Inactive)
REMARK    1  A    between atoms: N3_19  and  C14_20
REMARK                            x       y       z     vdW  Elec       q    Type
REMARK                         _______ _______ _______ _____ _____    ______ ____
ROOT
ATOM      1  O1  UNL     1      59.248  55.824  72.808  0.00  0.00    +0.000 OA
ATOM      2  C1  UNL     1      59.442  54.864  72.016  0.00  0.00    +0.000 C 
ATOM      3  C2  UNL     1      58.706  54.698  70.716  0.00  0.00    +0.000 C 
ATOM      4  C3  UNL     1      59.102  53.287  70.255  0.00  0.00    +0.000 C 
ATOM      5  C4  UNL     1      59.700  53.457  68.860  0.00  0.00    +0.000 C 
ATOM      6  N1  UNL     1      60.081  54.858  68.708  0.00  0.00    +0.000 NA
ATOM      7  C5  UNL     1      59.178  55.626  69.571  0.00  0.00    +0.000 C 
ATOM      8  C6  UNL     1      57.992  56.180  68.805  0.00  0.00    +0.000 C 
ATOM      9  O2  UNL     1      57.146  55.474  68.193  0.00  0.00    +0.000 OA
ATOM     10  N2  UNL     1      57.922  57.600  68.842  0.00  0.00    +0.000 N 
ATOM     11  C7  UNL     1      59.070  58.003  69.565  0.00  0.00    +0.000 A 
ATOM     12  C8  UNL     1      59.484  59.317  69.781  0.00  0.00    +0.000 A 
ATOM     13  C9  UNL     1      60.705  59.530  70.440  0.00  0.00    +0.000 A 
ATOM     14  C10 UNL     1      61.495  58.437  70.847  0.00  0.00    +0.000 A 
ATOM     15  C11 UNL     1      61.065  57.123  70.605  0.00  0.00    +0.000 A 
ATOM     16  C12 UNL     1      59.825  56.925  69.987  0.00  0.00    +0.000 A 
ATOM     17  C13 UNL     1      60.117  52.843  71.265  0.00  0.00    +0.000 C 
ATOM     18  O3  UNL     1      60.747  51.753  71.189  0.00  0.00    +0.000 OA
ATOM     19  N3  UNL     1      60.309  53.781  72.310  0.00  0.00    +0.000 N 
ATOM     20  H5  UNL     1      59.989  55.140  67.704  0.00  0.00    +0.000 HD
ATOM     21  H6  UNL     1      57.221  58.213  68.370  0.00  0.00    +0.000 HD
ENDROOT
BRANCH  19  22
ATOM     22  C14 UNL     1      61.199  53.666  73.436  0.00  0.00    +0.000 A 
ATOM     23  C15 UNL     1      62.590  53.705  73.246  0.00  0.00    +0.000 A 
ATOM     24  C16 UNL     1      63.460  53.591  74.332  0.00  0.00    +0.000 A 
ATOM     25  C17 UNL     1      62.952  53.440  75.630  0.00  0.00    +0.000 A 
ATOM     26  C18 UNL     1      63.818  53.325  76.729  0.00  0.00    +0.000 A 
ATOM     27  C19 UNL     1      63.298  53.177  78.018  0.00  0.00    +0.000 A 
ATOM     28  C20 UNL     1      61.916  53.144  78.220  0.00  0.00    +0.000 A 
ATOM     29  C21 UNL     1      61.043  53.256  77.134  0.00  0.00    +0.000 A 
ATOM     30  C22 UNL     1      61.552  53.403  75.833  0.00  0.00    +0.000 A 
ATOM     31  C23 UNL     1      60.685  53.518  74.735  0.00  0.00    +0.000 A 
ENDBRANCH  19  22
TORSDOF 1
ENDMDL
MODEL 8
REMARK VINA RESULT:    -7.308      3.415      7.145
REMARK INTER + INTRA:          -8.356
REMARK INTER:                  -7.701
REMARK INTRA:                  -0.654
REMARK UNBOUND:                -0.621
REMARK  Name = CNP0178720_1.pdb
REMARK  1 active torsions:
REMARK  status: ('A' for Active; 'I' for Inactive)
REMARK    1  A    between atoms: N3_19  and  C14_20
REMARK                            x       y       z     vdW  Elec       q    Type
REMARK                         _______ _______ _______ _____ _____    ______ ____
ROOT
ATOM      1  O1  UNL     1      61.037  55.931  68.578  0.00  0.00    +0.000 OA
ATOM      2  C1  UNL     1      60.632  55.336  69.611  0.00  0.00    +0.000 C 
ATOM      3  C2  UNL     1      61.127  55.645  70.996  0.00  0.00    +0.000 C 
ATOM      4  C3  UNL     1      60.539  54.513  71.851  0.00  0.00    +0.000 C 
ATOM      5  C4  UNL     1      59.737  55.198  72.955  0.00  0.00    +0.000 C 
ATOM      6  N1  UNL     1      59.460  56.564  72.521  0.00  0.00    +0.000 NA
ATOM      7  C5  UNL     1      60.557  56.940  71.623  0.00  0.00    +0.000 C 
ATOM      8  C6  UNL     1      61.645  57.712  72.344  0.00  0.00    +0.000 C 
ATOM      9  O2  UNL     1      62.314  57.264  73.313  0.00  0.00    +0.000 OA
ATOM     10  N2  UNL     1      61.844  59.017  71.814  0.00  0.00    +0.000 N 
ATOM     11  C7  UNL     1      60.871  59.149  70.796  0.00  0.00    +0.000 A 
ATOM     12  C8  UNL     1      60.614  60.299  70.050  0.00  0.00    +0.000 A 
ATOM     13  C9  UNL     1      59.542  60.280  69.144  0.00  0.00    +0.000 A 
ATOM     14  C10 UNL     1      58.737  59.131  69.018  0.00  0.00    +0.000 A 
ATOM     15  C11 UNL     1      59.004  57.990  69.791  0.00  0.00    +0.000 A 
ATOM     16  C12 UNL     1      60.104  58.007  70.657  0.00  0.00    +0.000 A 
ATOM     17  C13 UNL     1      59.669  53.749  70.899  0.00  0.00    +0.000 C 
ATOM     18  O3  UNL     1      58.941  52.778  71.243  0.00  0.00    +0.000 OA
ATOM     19  N3  UNL     1      59.733  54.239  69.570  0.00  0.00    +0.000 N 
ATOM     20  H5  UNL     1      59.411  57.195  73.356  0.00  0.00    +0.000 HD
ATOM     21  H6  UNL     1      62.509  59.745  72.155  0.00  0.00    +0.000 HD
ENDROOT
BRANCH  19  22
ATOM     22  C14 UNL     1      59.034  53.736  68.417  0.00  0.00    +0.000 A 
ATOM     23  C15 UNL     1      57.816  54.312  68.021  0.00  0.00    +0.000 A 
ATOM     24  C16 UNL     1      57.129  53.827  66.906  0.00  0.00    +0.000 A 
ATOM     25  C17 UNL     1      57.653  52.760  66.163  0.00  0.00    +0.000 A 
ATOM     26  C18 UNL     1      56.972  52.266  65.040  0.00  0.00    +0.000 A 
ATOM     27  C19 UNL     1      57.506  51.202  64.308  0.00  0.00    +0.000 A 
ATOM     28  C20 UNL     1      58.720  50.626  64.689  0.00  0.00    +0.000 A 
ATOM     29  C21 UNL     1      59.408  51.108  65.806  0.00  0.00    +0.000 A 
ATOM     30  C22 UNL     1      58.882  52.175  66.552  0.00  0.00    +0.000 A 
ATOM     31  C23 UNL     1      59.564  52.668  67.675  0.00  0.00    +0.000 A 
ENDBRANCH  19  22
TORSDOF 1
ENDMDL
MODEL 9
REMARK VINA RESULT:    -7.292      4.511      8.077
REMARK INTER + INTRA:          -8.340
REMARK INTER:                  -7.721
REMARK INTRA:                  -0.618
REMARK UNBOUND:                -0.621
REMARK  Name = CNP0178720_1.pdb
REMARK  1 active torsions:
REMARK  status: ('A' for Active; 'I' for Inactive)
REMARK    1  A    between atoms: N3_19  and  C14_20
REMARK                            x       y       z     vdW  Elec       q    Type
REMARK                         _______ _______ _______ _____ _____    ______ ____
ROOT
ATOM      1  O1  UNL     1      63.052  54.853  74.559  0.00  0.00    +0.000 OA
ATOM      2  C1  UNL     1      62.974  53.807  73.863  0.00  0.00    +0.000 C 
ATOM      3  C2  UNL     1      63.829  52.592  74.091  0.00  0.00    +0.000 C 
ATOM      4  C3  UNL     1      63.543  51.713  72.864  0.00  0.00    +0.000 C 
ATOM      5  C4  UNL     1      63.063  50.372  73.414  0.00  0.00    +0.000 C 
ATOM      6  N1  UNL     1      62.631  50.587  74.792  0.00  0.00    +0.000 NA
ATOM      7  C5  UNL     1      63.417  51.716  75.299  0.00  0.00    +0.000 C 
ATOM      8  C6  UNL     1      64.639  51.259  76.073  0.00  0.00    +0.000 C 
ATOM      9  O2  UNL     1      65.568  50.559  75.589  0.00  0.00    +0.000 OA
ATOM     10  N2  UNL     1      64.637  51.703  77.424  0.00  0.00    +0.000 N 
ATOM     11  C7  UNL     1      63.412  52.394  77.580  0.00  0.00    +0.000 A 
ATOM     12  C8  UNL     1      62.918  52.932  78.767  0.00  0.00    +0.000 A 
ATOM     13  C9  UNL     1      61.635  53.501  78.758  0.00  0.00    +0.000 A 
ATOM     14  C10 UNL     1      60.865  53.502  77.579  0.00  0.00    +0.000 A 
ATOM     15  C11 UNL     1      61.377  52.941  76.398  0.00  0.00    +0.000 A 
ATOM     16  C12 UNL     1      62.675  52.418  76.410  0.00  0.00    +0.000 A 
ATOM     17  C13 UNL     1      62.466  52.451  72.128  0.00  0.00    +0.000 C 
ATOM     18  O3  UNL     1      61.897  52.008  71.094  0.00  0.00    +0.000 OA
ATOM     19  N3  UNL     1      62.137  53.696  72.724  0.00  0.00    +0.000 N 
ATOM     20  H5  UNL     1      62.799  49.718  75.352  0.00  0.00    +0.000 HD
ATOM     21  H6  UNL     1      65.347  51.496  78.161  0.00  0.00    +0.000 HD
ENDROOT
BRANCH  19  22
ATOM     22  C14 UNL     1      61.158  54.649  72.273  0.00  0.00    +0.000 A 
ATOM     23  C15 UNL     1      59.951  54.809  72.973  0.00  0.00    +0.000 A 
ATOM     24  C16 UNL     1      58.994  55.730  72.540  0.00  0.00    +0.000 A 
ATOM     25  C17 UNL     1      59.231  56.511  71.400  0.00  0.00    +0.000 A 
ATOM     26  C18 UNL     1      58.277  57.440  70.958  0.00  0.00    +0.000 A 
ATOM     27  C19 UNL     1      58.526  58.214  69.821  0.00  0.00    +0.000 A 
ATOM     28  C20 UNL     1      59.726  58.068  69.120  0.00  0.00    +0.000 A 
ATOM     29  C21 UNL     1      60.685  57.146  69.550  0.00  0.00    +0.000 A 
ATOM     30  C22 UNL     1      60.446  56.360  70.690  0.00  0.00    +0.000 A 
ATOM     31  C23 UNL     1      61.401  55.432  71.132  0.00  0.00    +0.000 A 
ENDBRANCH  19  22
TORSDOF 1
ENDMDL
MODEL 10
REMARK VINA RESULT:    -7.206      2.368      4.961
REMARK INTER + INTRA:          -8.248
REMARK INTER:                  -7.586
REMARK INTRA:                  -0.661
REMARK UNBOUND:                -0.621
REMARK  Name = CNP0178720_1.pdb
REMARK  1 active torsions:
REMARK  status: ('A' for Active; 'I' for Inactive)
REMARK    1  A    between atoms: N3_19  and  C14_20
REMARK                            x       y       z     vdW  Elec       q    Type
REMARK                         _______ _______ _______ _____ _____    ______ ____
ROOT
ATOM      1  O1  UNL     1      58.832  53.226  69.952  0.00  0.00    +0.000 OA
ATOM      2  C1  UNL     1      58.928  54.476  69.828  0.00  0.00    +0.000 C 
ATOM      3  C2  UNL     1      59.309  55.156  68.543  0.00  0.00    +0.000 C 
ATOM      4  C3  UNL     1      59.530  56.618  68.960  0.00  0.00    +0.000 C 
ATOM      5  C4  UNL     1      58.601  57.448  68.078  0.00  0.00    +0.000 C 
ATOM      6  N1  UNL     1      57.577  56.553  67.547  0.00  0.00    +0.000 NA
ATOM      7  C5  UNL     1      58.188  55.222  67.478  0.00  0.00    +0.000 C 
ATOM      8  C6  UNL     1      58.740  54.919  66.098  0.00  0.00    +0.000 C 
ATOM      9  O2  UNL     1      59.639  55.591  65.526  0.00  0.00    +0.000 OA
ATOM     10  N2  UNL     1      58.134  53.781  65.497  0.00  0.00    +0.000 N 
ATOM     11  C7  UNL     1      57.151  53.359  66.424  0.00  0.00    +0.000 A 
ATOM     12  C8  UNL     1      56.231  52.329  66.232  0.00  0.00    +0.000 A 
ATOM     13  C9  UNL     1      55.260  52.110  67.222  0.00  0.00    +0.000 A 
ATOM     14  C10 UNL     1      55.211  52.932  68.364  0.00  0.00    +0.000 A 
ATOM     15  C11 UNL     1      56.138  53.972  68.529  0.00  0.00    +0.000 A 
ATOM     16  C12 UNL     1      57.128  54.151  67.556  0.00  0.00    +0.000 A 
ATOM     17  C13 UNL     1      59.132  56.651  70.405  0.00  0.00    +0.000 C 
ATOM     18  O3  UNL     1      59.097  57.705  71.096  0.00  0.00    +0.000 OA
ATOM     19  N3  UNL     1      58.782  55.375  70.915  0.00  0.00    +0.000 N 
ATOM     20  H5  UNL     1      57.274  56.888  66.601  0.00  0.00    +0.000 HD
ATOM     21  H6  UNL     1      58.319  53.391  64.547  0.00  0.00    +0.000 HD
ENDROOT
BRANCH  19  22
ATOM     22  C14 UNL     1      58.362  55.054  72.253  0.00  0.00    +0.000 A 
ATOM     23  C15 UNL     1      59.287  54.558  73.186  0.00  0.00    +0.000 A 
ATOM     24  C16 UNL     1      58.886  54.240  74.486  0.00  0.00    +0.000 A 
ATOM     25  C17 UNL     1      57.552  54.418  74.877  0.00  0.00    +0.000 A 
ATOM     26  C18 UNL     1      57.139  54.103  76.180  0.00  0.00    +0.000 A 
ATOM     27  C19 UNL     1      55.806  54.287  76.557  0.00  0.00    +0.000 A 
ATOM     28  C20 UNL     1      54.878  54.785  75.640  0.00  0.00    +0.000 A 
ATOM     29  C21 UNL     1      55.276  55.103  74.338  0.00  0.00    +0.000 A 
ATOM     30  C22 UNL     1      56.612  54.921  73.945  0.00  0.00    +0.000 A 
ATOM     31  C23 UNL     1      57.024  55.236  72.641  0.00  0.00    +0.000 A 
ENDBRANCH  19  22
TORSDOF 1
ENDMDL
