MODEL 1
REMARK VINA RESULT:    -7.691      0.000      0.000
REMARK INTER + INTRA:          -9.934
REMARK INTER:                  -9.040
REMARK INTRA:                  -0.894
REMARK UNBOUND:                -0.894
REMARK  Name = CNP0134612_0.pdb
REMARK  5 active torsions:
REMARK  status: ('A' for Active; 'I' for Inactive)
REMARK    1  A    between atoms: C1_1  and  N1_2
REMARK    2  A    between atoms: N2_5  and  C3_6
REMARK    3  A    between atoms: C6_9  and  C7_10
REMARK    4  A    between atoms: C10_14  and  C11_15
REMARK    5  A    between atoms: N3_17  and  C12_18
REMARK                            x       y       z     vdW  Elec       q    Type
REMARK                         _______ _______ _______ _____ _____    ______ ____
ROOT
ATOM      1  C7  UNL     1      21.134  33.881  38.292  0.00  0.00    +0.000 C 
ATOM      2  C8  UNL     1      20.046  33.119  37.609  0.00  0.00    +0.000 A 
ATOM      3  C9  UNL     1      19.546  32.168  38.444  0.00  0.00    +0.000 A 
ATOM      4  O2  UNL     1      20.176  32.188  39.672  0.00  0.00    +0.000 OA
ATOM      5  C10 UNL     1      21.174  33.209  39.704  0.00  0.00    +0.000 C 
ATOM      6  C18 UNL     1      18.531  31.309  38.029  0.00  0.00    +0.000 A 
ATOM      7  C19 UNL     1      17.991  30.318  38.858  0.00  0.00    +0.000 A 
ATOM      8  C20 UNL     1      16.975  29.489  38.372  0.00  0.00    +0.000 A 
ATOM      9  C21 UNL     1      16.500  29.646  37.065  0.00  0.00    +0.000 A 
ATOM     10  C22 UNL     1      17.038  30.634  36.231  0.00  0.00    +0.000 A 
ATOM     11  C23 UNL     1      18.055  31.471  36.704  0.00  0.00    +0.000 A 
ATOM     12  O4  UNL     1      18.576  32.412  35.908  0.00  0.00    +0.000 OA
ATOM     13  C24 UNL     1      19.549  33.233  36.307  0.00  0.00    +0.000 A 
ATOM     14  O5  UNL     1      20.011  34.098  35.516  0.00  0.00    +0.000 OA
ENDROOT
BRANCH   1  23
ATOM     15  C1  UNL     1      19.551  40.377  39.297  0.00  0.00    +0.000 C 
ATOM     16  N1  UNL     1      20.240  39.438  38.415  0.00  0.00    +0.000 N 
ATOM     17  C2  UNL     1      20.850  39.701  37.232  0.00  0.00    +0.000 A 
ATOM     18  O1  UNL     1      20.953  40.859  36.744  0.00  0.00    +0.000 OA
ATOM     19  N2  UNL     1      21.335  38.587  36.628  0.00  0.00    +0.000 N 
ATOM     20  C3  UNL     1      22.090  38.497  35.380  0.00  0.00    +0.000 C 
ATOM     21  C4  UNL     1      21.011  37.586  37.469  0.00  0.00    +0.000 A 
ATOM     22  C5  UNL     1      21.281  36.223  37.349  0.00  0.00    +0.000 A 
ATOM     23  C6  UNL     1      20.830  35.363  38.376  0.00  0.00    +0.000 A 
ATOM     24  C25 UNL     1      20.141  35.908  39.497  0.00  0.00    +0.000 A 
ATOM     25  C26 UNL     1      19.884  37.287  39.585  0.00  0.00    +0.000 A 
ATOM     26  C27 UNL     1      20.339  38.100  38.548  0.00  0.00    +0.000 A 
ENDBRANCH   1  23
BRANCH   5  27
ATOM     27  C11 UNL     1      22.519  32.603  39.992  0.00  0.00    +0.000 C 
ATOM     28  O3  UNL     1      23.478  32.827  39.205  0.00  0.00    +0.000 OA
ATOM     29  N3  UNL     1      22.706  31.778  41.154  0.00  0.00    +0.000 N 
ATOM     30  H10 UNL     1      21.991  31.835  41.914  0.00  0.00    +0.000 HD
BRANCH  29  31
ATOM     31  C12 UNL     1      23.864  30.959  41.384  0.00  0.00    +0.000 A 
ATOM     32  C13 UNL     1      23.968  29.665  40.842  0.00  0.00    +0.000 A 
ATOM     33  C14 UNL     1      25.091  28.875  41.111  0.00  0.00    +0.000 A 
ATOM     34  C15 UNL     1      26.110  29.364  41.931  0.00  0.00    +0.000 A 
ATOM     35  C16 UNL     1      26.007  30.641  42.489  0.00  0.00    +0.000 A 
ATOM     36  C17 UNL     1      24.885  31.433  42.224  0.00  0.00    +0.000 A 
ENDBRANCH  29  31
ENDBRANCH   5  27
TORSDOF 3
ENDMDL
MODEL 2
REMARK VINA RESULT:    -7.642      2.758      7.509
REMARK INTER + INTRA:          -9.876
REMARK INTER:                  -8.875
REMARK INTRA:                  -1.001
REMARK UNBOUND:                -0.894
REMARK  Name = CNP0134612_0.pdb
REMARK  5 active torsions:
REMARK  status: ('A' for Active; 'I' for Inactive)
REMARK    1  A    between atoms: C1_1  and  N1_2
REMARK    2  A    between atoms: N2_5  and  C3_6
REMARK    3  A    between atoms: C6_9  and  C7_10
REMARK    4  A    between atoms: C10_14  and  C11_15
REMARK    5  A    between atoms: N3_17  and  C12_18
REMARK                            x       y       z     vdW  Elec       q    Type
REMARK                         _______ _______ _______ _____ _____    ______ ____
ROOT
ATOM      1  C7  UNL     1      22.074  33.819  38.399  0.00  0.00    +0.000 C 
ATOM      2  C8  UNL     1      22.024  35.309  38.304  0.00  0.00    +0.000 A 
ATOM      3  C9  UNL     1      20.912  35.780  38.932  0.00  0.00    +0.000 A 
ATOM      4  O2  UNL     1      20.165  34.756  39.479  0.00  0.00    +0.000 OA
ATOM      5  C10 UNL     1      20.785  33.495  39.222  0.00  0.00    +0.000 C 
ATOM      6  C18 UNL     1      20.627  37.142  38.963  0.00  0.00    +0.000 A 
ATOM      7  C19 UNL     1      19.494  37.666  39.599  0.00  0.00    +0.000 A 
ATOM      8  C20 UNL     1      19.271  39.047  39.587  0.00  0.00    +0.000 A 
ATOM      9  C21 UNL     1      20.172  39.902  38.943  0.00  0.00    +0.000 A 
ATOM     10  C22 UNL     1      21.305  39.384  38.305  0.00  0.00    +0.000 A 
ATOM     11  C23 UNL     1      21.542  38.005  38.308  0.00  0.00    +0.000 A 
ATOM     12  O4  UNL     1      22.621  37.506  37.693  0.00  0.00    +0.000 OA
ATOM     13  C24 UNL     1      22.891  36.199  37.664  0.00  0.00    +0.000 A 
ATOM     14  O5  UNL     1      23.916  35.780  37.064  0.00  0.00    +0.000 OA
ENDROOT
BRANCH   1  23
ATOM     15  C1  UNL     1      27.733  31.189  41.003  0.00  0.00    +0.000 C 
ATOM     16  N1  UNL     1      26.783  32.296  41.082  0.00  0.00    +0.000 N 
ATOM     17  C2  UNL     1      26.768  33.317  41.976  0.00  0.00    +0.000 A 
ATOM     18  O1  UNL     1      27.649  33.479  42.864  0.00  0.00    +0.000 OA
ATOM     19  N2  UNL     1      25.705  34.145  41.816  0.00  0.00    +0.000 N 
ATOM     20  C3  UNL     1      25.396  35.366  42.556  0.00  0.00    +0.000 C 
ATOM     21  C4  UNL     1      25.026  33.614  40.779  0.00  0.00    +0.000 A 
ATOM     22  C5  UNL     1      23.854  34.072  40.178  0.00  0.00    +0.000 A 
ATOM     23  C6  UNL     1      23.330  33.332  39.094  0.00  0.00    +0.000 A 
ATOM     24  C25 UNL     1      24.015  32.170  38.641  0.00  0.00    +0.000 A 
ATOM     25  C26 UNL     1      25.194  31.736  39.271  0.00  0.00    +0.000 A 
ATOM     26  C27 UNL     1      25.674  32.489  40.341  0.00  0.00    +0.000 A 
ENDBRANCH   1  23
BRANCH   5  27
ATOM     27  C11 UNL     1      19.845  32.608  38.453  0.00  0.00    +0.000 C 
ATOM     28  O3  UNL     1      19.601  32.869  37.244  0.00  0.00    +0.000 OA
ATOM     29  N3  UNL     1      19.233  31.477  39.094  0.00  0.00    +0.000 N 
ATOM     30  H10 UNL     1      19.654  31.132  39.986  0.00  0.00    +0.000 HD
BRANCH  29  31
ATOM     31  C12 UNL     1      18.144  30.724  38.534  0.00  0.00    +0.000 A 
ATOM     32  C13 UNL     1      18.370  29.662  37.638  0.00  0.00    +0.000 A 
ATOM     33  C14 UNL     1      17.292  28.969  37.080  0.00  0.00    +0.000 A 
ATOM     34  C15 UNL     1      15.982  29.335  37.400  0.00  0.00    +0.000 A 
ATOM     35  C16 UNL     1      15.749  30.399  38.273  0.00  0.00    +0.000 A 
ATOM     36  C17 UNL     1      16.824  31.097  38.833  0.00  0.00    +0.000 A 
ENDBRANCH  29  31
ENDBRANCH   5  27
TORSDOF 3
ENDMDL
MODEL 3
REMARK VINA RESULT:    -7.569      1.703      5.726
REMARK INTER + INTRA:          -9.790
REMARK INTER:                  -8.920
REMARK INTRA:                  -0.869
REMARK UNBOUND:                -0.894
REMARK  Name = CNP0134612_0.pdb
REMARK  5 active torsions:
REMARK  status: ('A' for Active; 'I' for Inactive)
REMARK    1  A    between atoms: C1_1  and  N1_2
REMARK    2  A    between atoms: N2_5  and  C3_6
REMARK    3  A    between atoms: C6_9  and  C7_10
REMARK    4  A    between atoms: C10_14  and  C11_15
REMARK    5  A    between atoms: N3_17  and  C12_18
REMARK                            x       y       z     vdW  Elec       q    Type
REMARK                         _______ _______ _______ _____ _____    ______ ____
ROOT
ATOM      1  C7  UNL     1      20.519  33.870  38.901  0.00  0.00    +0.000 C 
ATOM      2  C8  UNL     1      21.784  33.554  39.632  0.00  0.00    +0.000 A 
ATOM      3  C9  UNL     1      22.497  32.619  38.948  0.00  0.00    +0.000 A 
ATOM      4  O2  UNL     1      21.859  32.244  37.783  0.00  0.00    +0.000 OA
ATOM      5  C10 UNL     1      20.628  32.954  37.639  0.00  0.00    +0.000 C 
ATOM      6  C18 UNL     1      23.710  32.141  39.438  0.00  0.00    +0.000 A 
ATOM      7  C19 UNL     1      24.474  31.180  38.764  0.00  0.00    +0.000 A 
ATOM      8  C20 UNL     1      25.682  30.744  39.318  0.00  0.00    +0.000 A 
ATOM      9  C21 UNL     1      26.126  31.262  40.540  0.00  0.00    +0.000 A 
ATOM     10  C22 UNL     1      25.365  32.222  41.218  0.00  0.00    +0.000 A 
ATOM     11  C23 UNL     1      24.155  32.668  40.676  0.00  0.00    +0.000 A 
ATOM     12  O4  UNL     1      23.423  33.580  41.326  0.00  0.00    +0.000 OA
ATOM     13  C24 UNL     1      22.260  34.036  40.855  0.00  0.00    +0.000 A 
ATOM     14  O5  UNL     1      21.605  34.890  41.509  0.00  0.00    +0.000 OA
ENDROOT
BRANCH   1  23
ATOM     15  C1  UNL     1      19.761  40.505  37.844  0.00  0.00    +0.000 C 
ATOM     16  N1  UNL     1      20.425  39.290  37.380  0.00  0.00    +0.000 N 
ATOM     17  C2  UNL     1      21.226  39.142  36.295  0.00  0.00    +0.000 A 
ATOM     18  O1  UNL     1      21.563  40.096  35.542  0.00  0.00    +0.000 OA
ATOM     19  N2  UNL     1      21.627  37.860  36.105  0.00  0.00    +0.000 N 
ATOM     20  C3  UNL     1      22.530  37.342  35.079  0.00  0.00    +0.000 C 
ATOM     21  C4  UNL     1      21.047  37.178  37.112  0.00  0.00    +0.000 A 
ATOM     22  C5  UNL     1      21.133  35.818  37.409  0.00  0.00    +0.000 A 
ATOM     23  C6  UNL     1      20.423  35.337  38.533  0.00  0.00    +0.000 A 
ATOM     24  C25 UNL     1      19.668  36.245  39.328  0.00  0.00    +0.000 A 
ATOM     25  C26 UNL     1      19.602  37.609  38.999  0.00  0.00    +0.000 A 
ATOM     26  C27 UNL     1      20.311  38.043  37.879  0.00  0.00    +0.000 A 
ENDBRANCH   1  23
BRANCH   5  27
ATOM     27  C11 UNL     1      19.482  31.984  37.558  0.00  0.00    +0.000 C 
ATOM     28  O3  UNL     1      19.041  31.642  36.428  0.00  0.00    +0.000 OA
ATOM     29  N3  UNL     1      18.899  31.454  38.761  0.00  0.00    +0.000 N 
ATOM     30  H10 UNL     1      19.447  31.534  39.647  0.00  0.00    +0.000 HD
BRANCH  29  31
ATOM     31  C12 UNL     1      17.660  30.727  38.804  0.00  0.00    +0.000 A 
ATOM     32  C13 UNL     1      16.520  31.178  38.111  0.00  0.00    +0.000 A 
ATOM     33  C14 UNL     1      15.316  30.472  38.199  0.00  0.00    +0.000 A 
ATOM     34  C15 UNL     1      15.236  29.320  38.985  0.00  0.00    +0.000 A 
ATOM     35  C16 UNL     1      16.357  28.876  39.690  0.00  0.00    +0.000 A 
ATOM     36  C17 UNL     1      17.562  29.580  39.607  0.00  0.00    +0.000 A 
ENDBRANCH  29  31
ENDBRANCH   5  27
TORSDOF 3
ENDMDL
MODEL 4
REMARK VINA RESULT:    -7.479      1.847      2.350
REMARK INTER + INTRA:          -9.685
REMARK INTER:                  -8.624
REMARK INTRA:                  -1.061
REMARK UNBOUND:                -0.894
REMARK  Name = CNP0134612_0.pdb
REMARK  5 active torsions:
REMARK  status: ('A' for Active; 'I' for Inactive)
REMARK    1  A    between atoms: C1_1  and  N1_2
REMARK    2  A    between atoms: N2_5  and  C3_6
REMARK    3  A    between atoms: C6_9  and  C7_10
REMARK    4  A    between atoms: C10_14  and  C11_15
REMARK    5  A    between atoms: N3_17  and  C12_18
REMARK                            x       y       z     vdW  Elec       q    Type
REMARK                         _______ _______ _______ _____ _____    ______ ____
ROOT
ATOM      1  C7  UNL     1      21.200  34.832  38.263  0.00  0.00    +0.000 C 
ATOM      2  C8  UNL     1      20.489  33.700  37.596  0.00  0.00    +0.000 A 
ATOM      3  C9  UNL     1      19.739  33.019  38.506  0.00  0.00    +0.000 A 
ATOM      4  O2  UNL     1      19.842  33.572  39.766  0.00  0.00    +0.000 OA
ATOM      5  C10 UNL     1      20.713  34.704  39.744  0.00  0.00    +0.000 C 
ATOM      6  C18 UNL     1      18.995  31.903  38.132  0.00  0.00    +0.000 A 
ATOM      7  C19 UNL     1      18.212  31.176  39.037  0.00  0.00    +0.000 A 
ATOM      8  C20 UNL     1      17.493  30.062  38.590  0.00  0.00    +0.000 A 
ATOM      9  C21 UNL     1      17.557  29.673  37.247  0.00  0.00    +0.000 A 
ATOM     10  C22 UNL     1      18.341  30.395  36.339  0.00  0.00    +0.000 A 
ATOM     11  C23 UNL     1      19.065  31.511  36.771  0.00  0.00    +0.000 A 
ATOM     12  O4  UNL     1      19.819  32.199  35.906  0.00  0.00    +0.000 OA
ATOM     13  C24 UNL     1      20.532  33.269  36.267  0.00  0.00    +0.000 A 
ATOM     14  O5  UNL     1      21.233  33.877  35.416  0.00  0.00    +0.000 OA
ENDROOT
BRANCH   1  23
ATOM     15  C1  UNL     1      19.071  40.846  36.023  0.00  0.00    +0.000 C 
ATOM     16  N1  UNL     1      20.138  39.852  35.946  0.00  0.00    +0.000 N 
ATOM     17  C2  UNL     1      21.236  39.870  35.148  0.00  0.00    +0.000 A 
ATOM     18  O1  UNL     1      21.518  40.823  34.372  0.00  0.00    +0.000 OA
ATOM     19  N2  UNL     1      21.998  38.754  35.273  0.00  0.00    +0.000 N 
ATOM     20  C3  UNL     1      23.269  38.454  34.615  0.00  0.00    +0.000 C 
ATOM     21  C4  UNL     1      21.345  38.007  36.185  0.00  0.00    +0.000 A 
ATOM     22  C5  UNL     1      21.694  36.760  36.702  0.00  0.00    +0.000 A 
ATOM     23  C6  UNL     1      20.834  36.173  37.658  0.00  0.00    +0.000 A 
ATOM     24  C25 UNL     1      19.666  36.871  38.075  0.00  0.00    +0.000 A 
ATOM     25  C26 UNL     1      19.344  38.126  37.531  0.00  0.00    +0.000 A 
ATOM     26  C27 UNL     1      20.214  38.668  36.585  0.00  0.00    +0.000 A 
ENDBRANCH   1  23
BRANCH   5  27
ATOM     27  C11 UNL     1      21.862  34.487  40.688  0.00  0.00    +0.000 C 
ATOM     28  O3  UNL     1      21.746  34.838  41.893  0.00  0.00    +0.000 OA
ATOM     29  N3  UNL     1      23.079  33.884  40.217  0.00  0.00    +0.000 N 
ATOM     30  H10 UNL     1      23.050  33.364  39.311  0.00  0.00    +0.000 HD
BRANCH  29  31
ATOM     31  C12 UNL     1      24.308  33.860  40.962  0.00  0.00    +0.000 A 
ATOM     32  C13 UNL     1      25.088  35.020  41.130  0.00  0.00    +0.000 A 
ATOM     33  C14 UNL     1      26.298  34.962  41.829  0.00  0.00    +0.000 A 
ATOM     34  C15 UNL     1      26.744  33.747  42.355  0.00  0.00    +0.000 A 
ATOM     35  C16 UNL     1      25.986  32.588  42.178  0.00  0.00    +0.000 A 
ATOM     36  C17 UNL     1      24.777  32.641  41.477  0.00  0.00    +0.000 A 
ENDBRANCH  29  31
ENDBRANCH   5  27
TORSDOF 3
ENDMDL
MODEL 5
REMARK VINA RESULT:    -7.417      6.191      9.426
REMARK INTER + INTRA:          -9.612
REMARK INTER:                  -8.547
REMARK INTRA:                  -1.065
REMARK UNBOUND:                -0.894
REMARK  Name = CNP0134612_0.pdb
REMARK  5 active torsions:
REMARK  status: ('A' for Active; 'I' for Inactive)
REMARK    1  A    between atoms: C1_1  and  N1_2
REMARK    2  A    between atoms: N2_5  and  C3_6
REMARK    3  A    between atoms: C6_9  and  C7_10
REMARK    4  A    between atoms: C10_14  and  C11_15
REMARK    5  A    between atoms: N3_17  and  C12_18
REMARK                            x       y       z     vdW  Elec       q    Type
REMARK                         _______ _______ _______ _____ _____    ______ ____
ROOT
ATOM      1  C7  UNL     1      19.300  38.612  33.739  0.00  0.00    +0.000 C 
ATOM      2  C8  UNL     1      19.467  39.302  35.053  0.00  0.00    +0.000 A 
ATOM      3  C9  UNL     1      19.439  38.392  36.066  0.00  0.00    +0.000 A 
ATOM      4  O2  UNL     1      19.276  37.107  35.590  0.00  0.00    +0.000 OA
ATOM      5  C10 UNL     1      19.184  37.111  34.164  0.00  0.00    +0.000 C 
ATOM      6  C18 UNL     1      19.554  38.793  37.394  0.00  0.00    +0.000 A 
ATOM      7  C19 UNL     1      19.529  37.889  38.464  0.00  0.00    +0.000 A 
ATOM      8  C20 UNL     1      19.647  38.364  39.774  0.00  0.00    +0.000 A 
ATOM      9  C21 UNL     1      19.787  39.735  40.018  0.00  0.00    +0.000 A 
ATOM     10  C22 UNL     1      19.811  40.644  38.952  0.00  0.00    +0.000 A 
ATOM     11  C23 UNL     1      19.694  40.183  37.636  0.00  0.00    +0.000 A 
ATOM     12  O4  UNL     1      19.710  41.049  36.617  0.00  0.00    +0.000 OA
ATOM     13  C24 UNL     1      19.598  40.663  35.344  0.00  0.00    +0.000 A 
ATOM     14  O5  UNL     1      19.611  41.520  34.420  0.00  0.00    +0.000 OA
ENDROOT
BRANCH   1  23
ATOM     15  C1  UNL     1      24.096  39.901  29.151  0.00  0.00    +0.000 C 
ATOM     16  N1  UNL     1      23.840  39.555  30.547  0.00  0.00    +0.000 N 
ATOM     17  C2  UNL     1      24.749  39.278  31.515  0.00  0.00    +0.000 A 
ATOM     18  O1  UNL     1      25.996  39.342  31.339  0.00  0.00    +0.000 OA
ATOM     19  N2  UNL     1      24.176  38.924  32.693  0.00  0.00    +0.000 N 
ATOM     20  C3  UNL     1      24.837  38.613  33.959  0.00  0.00    +0.000 C 
ATOM     21  C4  UNL     1      22.852  38.980  32.447  0.00  0.00    +0.000 A 
ATOM     22  C5  UNL     1      21.791  38.725  33.315  0.00  0.00    +0.000 A 
ATOM     23  C6  UNL     1      20.476  38.851  32.813  0.00  0.00    +0.000 A 
ATOM     24  C25 UNL     1      20.275  39.247  31.461  0.00  0.00    +0.000 A 
ATOM     25  C26 UNL     1      21.368  39.494  30.612  0.00  0.00    +0.000 A 
ATOM     26  C27 UNL     1      22.649  39.352  31.144  0.00  0.00    +0.000 A 
ENDBRANCH   1  23
BRANCH   5  27
ATOM     27  C11 UNL     1      17.875  36.512  33.732  0.00  0.00    +0.000 C 
ATOM     28  O3  UNL     1      16.855  36.668  34.458  0.00  0.00    +0.000 OA
ATOM     29  N3  UNL     1      17.791  35.770  32.504  0.00  0.00    +0.000 N 
ATOM     30  H10 UNL     1      18.559  35.889  31.807  0.00  0.00    +0.000 HD
BRANCH  29  31
ATOM     31  C12 UNL     1      16.667  34.957  32.129  0.00  0.00    +0.000 A 
ATOM     32  C13 UNL     1      15.483  35.528  31.624  0.00  0.00    +0.000 A 
ATOM     33  C14 UNL     1      14.391  34.717  31.300  0.00  0.00    +0.000 A 
ATOM     34  C15 UNL     1      14.466  33.334  31.488  0.00  0.00    +0.000 A 
ATOM     35  C16 UNL     1      15.629  32.761  32.005  0.00  0.00    +0.000 A 
ATOM     36  C17 UNL     1      16.723  33.569  32.333  0.00  0.00    +0.000 A 
ENDBRANCH  29  31
ENDBRANCH   5  27
TORSDOF 3
ENDMDL
MODEL 6
REMARK VINA RESULT:    -7.414      2.705      8.304
REMARK INTER + INTRA:          -9.608
REMARK INTER:                  -8.390
REMARK INTRA:                  -1.218
REMARK UNBOUND:                -0.894
REMARK  Name = CNP0134612_0.pdb
REMARK  5 active torsions:
REMARK  status: ('A' for Active; 'I' for Inactive)
REMARK    1  A    between atoms: C1_1  and  N1_2
REMARK    2  A    between atoms: N2_5  and  C3_6
REMARK    3  A    between atoms: C6_9  and  C7_10
REMARK    4  A    between atoms: C10_14  and  C11_15
REMARK    5  A    between atoms: N3_17  and  C12_18
REMARK                            x       y       z     vdW  Elec       q    Type
REMARK                         _______ _______ _______ _____ _____    ______ ____
ROOT
ATOM      1  C7  UNL     1      20.720  34.291  38.048  0.00  0.00    +0.000 C 
ATOM      2  C8  UNL     1      22.074  33.889  38.533  0.00  0.00    +0.000 A 
ATOM      3  C9  UNL     1      22.321  34.451  39.748  0.00  0.00    +0.000 A 
ATOM      4  O2  UNL     1      21.256  35.215  40.181  0.00  0.00    +0.000 OA
ATOM      5  C10 UNL     1      20.201  35.189  39.219  0.00  0.00    +0.000 C 
ATOM      6  C18 UNL     1      23.532  34.243  40.403  0.00  0.00    +0.000 A 
ATOM      7  C19 UNL     1      23.825  34.804  41.653  0.00  0.00    +0.000 A 
ATOM      8  C20 UNL     1      25.065  34.553  42.250  0.00  0.00    +0.000 A 
ATOM      9  C21 UNL     1      26.010  33.749  41.603  0.00  0.00    +0.000 A 
ATOM     10  C22 UNL     1      25.724  33.188  40.352  0.00  0.00    +0.000 A 
ATOM     11  C23 UNL     1      24.487  33.429  39.743  0.00  0.00    +0.000 A 
ATOM     12  O4  UNL     1      24.213  32.899  38.545  0.00  0.00    +0.000 OA
ATOM     13  C24 UNL     1      23.052  33.101  37.919  0.00  0.00    +0.000 A 
ATOM     14  O5  UNL     1      22.846  32.586  36.788  0.00  0.00    +0.000 OA
ENDROOT
BRANCH   1  23
ATOM     15  C1  UNL     1      16.692  28.875  37.642  0.00  0.00    +0.000 C 
ATOM     16  N1  UNL     1      17.269  29.993  36.900  0.00  0.00    +0.000 N 
ATOM     17  C2  UNL     1      17.151  30.262  35.575  0.00  0.00    +0.000 A 
ATOM     18  O1  UNL     1      16.447  29.576  34.786  0.00  0.00    +0.000 OA
ATOM     19  N2  UNL     1      17.872  31.345  35.189  0.00  0.00    +0.000 N 
ATOM     20  C3  UNL     1      17.941  31.953  33.862  0.00  0.00    +0.000 C 
ATOM     21  C4  UNL     1      18.468  31.767  36.322  0.00  0.00    +0.000 A 
ATOM     22  C5  UNL     1      19.316  32.858  36.507  0.00  0.00    +0.000 A 
ATOM     23  C6  UNL     1      19.820  33.096  37.806  0.00  0.00    +0.000 A 
ATOM     24  C25 UNL     1      19.436  32.239  38.876  0.00  0.00    +0.000 A 
ATOM     25  C26 UNL     1      18.579  31.147  38.654  0.00  0.00    +0.000 A 
ATOM     26  C27 UNL     1      18.110  30.943  37.357  0.00  0.00    +0.000 A 
ENDBRANCH   1  23
BRANCH   5  27
ATOM     27  C11 UNL     1      19.896  36.586  38.753  0.00  0.00    +0.000 C 
ATOM     28  O3  UNL     1      19.042  37.272  39.377  0.00  0.00    +0.000 OA
ATOM     29  N3  UNL     1      20.574  37.129  37.608  0.00  0.00    +0.000 N 
ATOM     30  H10 UNL     1      21.450  36.657  37.289  0.00  0.00    +0.000 HD
BRANCH  29  31
ATOM     31  C12 UNL     1      20.184  38.339  36.938  0.00  0.00    +0.000 A 
ATOM     32  C13 UNL     1      20.505  39.605  37.464  0.00  0.00    +0.000 A 
ATOM     33  C14 UNL     1      20.082  40.767  36.811  0.00  0.00    +0.000 A 
ATOM     34  C15 UNL     1      19.327  40.677  35.639  0.00  0.00    +0.000 A 
ATOM     35  C16 UNL     1      18.988  39.425  35.121  0.00  0.00    +0.000 A 
ATOM     36  C17 UNL     1      19.407  38.260  35.771  0.00  0.00    +0.000 A 
ENDBRANCH  29  31
ENDBRANCH   5  27
TORSDOF 3
ENDMDL
MODEL 7
REMARK VINA RESULT:    -7.199      6.555     10.573
REMARK INTER + INTRA:          -9.355
REMARK INTER:                  -8.316
REMARK INTRA:                  -1.039
REMARK UNBOUND:                -0.894
REMARK  Name = CNP0134612_0.pdb
REMARK  5 active torsions:
REMARK  status: ('A' for Active; 'I' for Inactive)
REMARK    1  A    between atoms: C1_1  and  N1_2
REMARK    2  A    between atoms: N2_5  and  C3_6
REMARK    3  A    between atoms: C6_9  and  C7_10
REMARK    4  A    between atoms: C10_14  and  C11_15
REMARK    5  A    between atoms: N3_17  and  C12_18
REMARK                            x       y       z     vdW  Elec       q    Type
REMARK                         _______ _______ _______ _____ _____    ______ ____
ROOT
ATOM      1  C7  UNL     1      19.138  39.325  33.690  0.00  0.00    +0.000 C 
ATOM      2  C8  UNL     1      19.063  38.759  35.071  0.00  0.00    +0.000 A 
ATOM      3  C9  UNL     1      19.518  39.671  35.974  0.00  0.00    +0.000 A 
ATOM      4  O2  UNL     1      19.903  40.845  35.361  0.00  0.00    +0.000 OA
ATOM      5  C10 UNL     1      19.710  40.757  33.948  0.00  0.00    +0.000 C 
ATOM      6  C18 UNL     1      19.567  39.372  37.333  0.00  0.00    +0.000 A 
ATOM      7  C19 UNL     1      20.029  40.282  38.293  0.00  0.00    +0.000 A 
ATOM      8  C20 UNL     1      20.053  39.911  39.641  0.00  0.00    +0.000 A 
ATOM      9  C21 UNL     1      19.622  38.638  40.031  0.00  0.00    +0.000 A 
ATOM     10  C22 UNL     1      19.163  37.724  39.075  0.00  0.00    +0.000 A 
ATOM     11  C23 UNL     1      19.132  38.081  37.723  0.00  0.00    +0.000 A 
ATOM     12  O4  UNL     1      18.699  37.207  36.807  0.00  0.00    +0.000 OA
ATOM     13  C24 UNL     1      18.653  37.495  35.504  0.00  0.00    +0.000 A 
ATOM     14  O5  UNL     1      18.244  36.635  34.681  0.00  0.00    +0.000 OA
ENDROOT
BRANCH   1  23
ATOM     15  C1  UNL     1      12.988  40.104  30.990  0.00  0.00    +0.000 C 
ATOM     16  N1  UNL     1      14.223  39.326  30.944  0.00  0.00    +0.000 N 
ATOM     17  C2  UNL     1      14.493  38.238  30.179  0.00  0.00    +0.000 A 
ATOM     18  O1  UNL     1      13.691  37.769  29.327  0.00  0.00    +0.000 OA
ATOM     19  N2  UNL     1      15.717  37.706  30.429  0.00  0.00    +0.000 N 
ATOM     20  C3  UNL     1      16.359  36.574  29.764  0.00  0.00    +0.000 C 
ATOM     21  C4  UNL     1      16.229  38.494  31.394  0.00  0.00    +0.000 A 
ATOM     22  C5  UNL     1      17.474  38.412  32.019  0.00  0.00    +0.000 A 
ATOM     23  C6  UNL     1      17.782  39.367  33.014  0.00  0.00    +0.000 A 
ATOM     24  C25 UNL     1      16.836  40.381  33.332  0.00  0.00    +0.000 A 
ATOM     25  C26 UNL     1      15.590  40.434  32.684  0.00  0.00    +0.000 A 
ATOM     26  C27 UNL     1      15.322  39.470  31.713  0.00  0.00    +0.000 A 
ENDBRANCH   1  23
BRANCH   5  27
ATOM     27  C11 UNL     1      21.017  40.968  33.237  0.00  0.00    +0.000 C 
ATOM     28  O3  UNL     1      22.029  40.307  33.595  0.00  0.00    +0.000 OA
ATOM     29  N3  UNL     1      21.108  41.916  32.159  0.00  0.00    +0.000 N 
ATOM     30  H10 UNL     1      20.219  42.235  31.713  0.00  0.00    +0.000 HD
BRANCH  29  31
ATOM     31  C12 UNL     1      22.346  42.371  31.588  0.00  0.00    +0.000 A 
ATOM     32  C13 UNL     1      23.056  43.453  32.140  0.00  0.00    +0.000 A 
ATOM     33  C14 UNL     1      24.239  43.899  31.543  0.00  0.00    +0.000 A 
ATOM     34  C15 UNL     1      24.716  43.278  30.386  0.00  0.00    +0.000 A 
ATOM     35  C16 UNL     1      24.009  42.215  29.821  0.00  0.00    +0.000 A 
ATOM     36  C17 UNL     1      22.824  41.767  30.413  0.00  0.00    +0.000 A 
ENDBRANCH  29  31
ENDBRANCH   5  27
TORSDOF 3
ENDMDL
MODEL 8
REMARK VINA RESULT:    -7.028      2.303      7.259
REMARK INTER + INTRA:          -9.155
REMARK INTER:                  -8.158
REMARK INTRA:                  -0.996
REMARK UNBOUND:                -0.894
REMARK  Name = CNP0134612_0.pdb
REMARK  5 active torsions:
REMARK  status: ('A' for Active; 'I' for Inactive)
REMARK    1  A    between atoms: C1_1  and  N1_2
REMARK    2  A    between atoms: N2_5  and  C3_6
REMARK    3  A    between atoms: C6_9  and  C7_10
REMARK    4  A    between atoms: C10_14  and  C11_15
REMARK    5  A    between atoms: N3_17  and  C12_18
REMARK                            x       y       z     vdW  Elec       q    Type
REMARK                         _______ _______ _______ _____ _____    ______ ____
ROOT
ATOM      1  C7  UNL     1      22.002  34.373  38.817  0.00  0.00    +0.000 C 
ATOM      2  C8  UNL     1      20.960  33.333  38.560  0.00  0.00    +0.000 A 
ATOM      3  C9  UNL     1      20.475  33.461  37.295  0.00  0.00    +0.000 A 
ATOM      4  O2  UNL     1      21.086  34.497  36.619  0.00  0.00    +0.000 OA
ATOM      5  C10 UNL     1      22.055  35.134  37.453  0.00  0.00    +0.000 C 
ATOM      6  C18 UNL     1      19.474  32.617  36.821  0.00  0.00    +0.000 A 
ATOM      7  C19 UNL     1      18.948  32.716  35.527  0.00  0.00    +0.000 A 
ATOM      8  C20 UNL     1      17.941  31.835  35.120  0.00  0.00    +0.000 A 
ATOM      9  C21 UNL     1      17.458  30.860  36.001  0.00  0.00    +0.000 A 
ATOM     10  C22 UNL     1      17.978  30.758  37.297  0.00  0.00    +0.000 A 
ATOM     11  C23 UNL     1      18.987  31.632  37.717  0.00  0.00    +0.000 A 
ATOM     12  O4  UNL     1      19.482  31.541  38.957  0.00  0.00    +0.000 OA
ATOM     13  C24 UNL     1      20.441  32.352  39.410  0.00  0.00    +0.000 A 
ATOM     14  O5  UNL     1      20.867  32.229  40.588  0.00  0.00    +0.000 OA
ENDROOT
BRANCH   1  23
ATOM     15  C1  UNL     1      27.924  31.286  39.875  0.00  0.00    +0.000 C 
ATOM     16  N1  UNL     1      27.051  32.376  40.304  0.00  0.00    +0.000 N 
ATOM     17  C2  UNL     1      27.241  33.236  41.337  0.00  0.00    +0.000 A 
ATOM     18  O1  UNL     1      28.273  33.240  42.060  0.00  0.00    +0.000 OA
ATOM     19  N2  UNL     1      26.201  34.091  41.510  0.00  0.00    +0.000 N 
ATOM     20  C3  UNL     1      26.082  35.177  42.480  0.00  0.00    +0.000 C 
ATOM     21  C4  UNL     1      25.325  33.746  40.546  0.00  0.00    +0.000 A 
ATOM     22  C5  UNL     1      24.083  34.309  40.254  0.00  0.00    +0.000 A 
ATOM     23  C6  UNL     1      23.341  33.764  39.181  0.00  0.00    +0.000 A 
ATOM     24  C25 UNL     1      23.884  32.684  38.429  0.00  0.00    +0.000 A 
ATOM     25  C26 UNL     1      25.139  32.139  38.752  0.00  0.00    +0.000 A 
ATOM     26  C27 UNL     1      25.835  32.701  39.822  0.00  0.00    +0.000 A 
ENDBRANCH   1  23
BRANCH   5  27
ATOM     27  C11 UNL     1      21.715  36.589  37.616  0.00  0.00    +0.000 C 
ATOM     28  O3  UNL     1      22.588  37.460  37.356  0.00  0.00    +0.000 OA
ATOM     29  N3  UNL     1      20.406  36.978  38.065  0.00  0.00    +0.000 N 
ATOM     30  H10 UNL     1      19.638  36.271  38.007  0.00  0.00    +0.000 HD
BRANCH  29  31
ATOM     31  C12 UNL     1      20.060  38.307  38.488  0.00  0.00    +0.000 A 
ATOM     32  C13 UNL     1      20.113  39.398  37.600  0.00  0.00    +0.000 A 
ATOM     33  C14 UNL     1      19.806  40.687  38.047  0.00  0.00    +0.000 A 
ATOM     34  C15 UNL     1      19.457  40.901  39.383  0.00  0.00    +0.000 A 
ATOM     35  C16 UNL     1      19.420  39.827  40.275  0.00  0.00    +0.000 A 
ATOM     36  C17 UNL     1      19.728  38.537  39.833  0.00  0.00    +0.000 A 
ENDBRANCH  29  31
ENDBRANCH   5  27
TORSDOF 3
ENDMDL
MODEL 9
REMARK VINA RESULT:    -7.006      3.197      6.939
REMARK INTER + INTRA:          -9.128
REMARK INTER:                  -7.859
REMARK INTRA:                  -1.269
REMARK UNBOUND:                -0.894
REMARK  Name = CNP0134612_0.pdb
REMARK  5 active torsions:
REMARK  status: ('A' for Active; 'I' for Inactive)
REMARK    1  A    between atoms: C1_1  and  N1_2
REMARK    2  A    between atoms: N2_5  and  C3_6
REMARK    3  A    between atoms: C6_9  and  C7_10
REMARK    4  A    between atoms: C10_14  and  C11_15
REMARK    5  A    between atoms: N3_17  and  C12_18
REMARK                            x       y       z     vdW  Elec       q    Type
REMARK                         _______ _______ _______ _____ _____    ______ ____
ROOT
ATOM      1  C7  UNL     1      21.961  35.753  38.207  0.00  0.00    +0.000 C 
ATOM      2  C8  UNL     1      21.179  36.988  37.902  0.00  0.00    +0.000 A 
ATOM      3  C9  UNL     1      21.675  37.592  36.788  0.00  0.00    +0.000 A 
ATOM      4  O2  UNL     1      22.739  36.890  36.260  0.00  0.00    +0.000 OA
ATOM      5  C10 UNL     1      23.009  35.729  37.047  0.00  0.00    +0.000 C 
ATOM      6  C18 UNL     1      21.125  38.779  36.310  0.00  0.00    +0.000 A 
ATOM      7  C19 UNL     1      21.607  39.431  35.167  0.00  0.00    +0.000 A 
ATOM      8  C20 UNL     1      21.007  40.623  34.747  0.00  0.00    +0.000 A 
ATOM      9  C21 UNL     1      19.933  41.164  35.463  0.00  0.00    +0.000 A 
ATOM     10  C22 UNL     1      19.449  40.517  36.607  0.00  0.00    +0.000 A 
ATOM     11  C23 UNL     1      20.039  39.324  37.039  0.00  0.00    +0.000 A 
ATOM     12  O4  UNL     1      19.583  38.707  38.136  0.00  0.00    +0.000 OA
ATOM     13  C24 UNL     1      20.112  37.570  38.593  0.00  0.00    +0.000 A 
ATOM     14  O5  UNL     1      19.651  37.033  39.635  0.00  0.00    +0.000 OA
ENDROOT
BRANCH   1  23
ATOM     15  C1  UNL     1      18.123  30.231  38.915  0.00  0.00    +0.000 C 
ATOM     16  N1  UNL     1      18.600  31.242  37.975  0.00  0.00    +0.000 N 
ATOM     17  C2  UNL     1      18.373  31.309  36.638  0.00  0.00    +0.000 A 
ATOM     18  O1  UNL     1      17.638  30.496  36.015  0.00  0.00    +0.000 OA
ATOM     19  N2  UNL     1      19.021  32.342  36.043  0.00  0.00    +0.000 N 
ATOM     20  C3  UNL     1      18.967  32.749  34.640  0.00  0.00    +0.000 C 
ATOM     21  C4  UNL     1      19.684  32.942  37.051  0.00  0.00    +0.000 A 
ATOM     22  C5  UNL     1      20.502  34.071  37.007  0.00  0.00    +0.000 A 
ATOM     23  C6  UNL     1      21.092  34.511  38.214  0.00  0.00    +0.000 A 
ATOM     24  C25 UNL     1      20.822  33.812  39.424  0.00  0.00    +0.000 A 
ATOM     25  C26 UNL     1      19.993  32.677  39.432  0.00  0.00    +0.000 A 
ATOM     26  C27 UNL     1      19.436  32.271  38.220  0.00  0.00    +0.000 A 
ENDBRANCH   1  23
BRANCH   5  27
ATOM     27  C11 UNL     1      24.418  35.778  37.570  0.00  0.00    +0.000 C 
ATOM     28  O3  UNL     1      25.366  36.004  36.770  0.00  0.00    +0.000 OA
ATOM     29  N3  UNL     1      24.676  35.570  38.969  0.00  0.00    +0.000 N 
ATOM     30  H10 UNL     1      23.874  35.661  39.633  0.00  0.00    +0.000 HD
BRANCH  29  31
ATOM     31  C12 UNL     1      25.983  35.351  39.524  0.00  0.00    +0.000 A 
ATOM     32  C13 UNL     1      26.786  36.424  39.955  0.00  0.00    +0.000 A 
ATOM     33  C14 UNL     1      28.069  36.185  40.459  0.00  0.00    +0.000 A 
ATOM     34  C15 UNL     1      28.565  34.881  40.524  0.00  0.00    +0.000 A 
ATOM     35  C16 UNL     1      27.781  33.813  40.082  0.00  0.00    +0.000 A 
ATOM     36  C17 UNL     1      26.498  34.046  39.575  0.00  0.00    +0.000 A 
ENDBRANCH  29  31
ENDBRANCH   5  27
TORSDOF 3
ENDMDL
MODEL 10
REMARK VINA RESULT:    -6.983      6.757     11.722
REMARK INTER + INTRA:          -9.101
REMARK INTER:                  -8.093
REMARK INTRA:                  -1.008
REMARK UNBOUND:                -0.894
REMARK  Name = CNP0134612_0.pdb
REMARK  5 active torsions:
REMARK  status: ('A' for Active; 'I' for Inactive)
REMARK    1  A    between atoms: C1_1  and  N1_2
REMARK    2  A    between atoms: N2_5  and  C3_6
REMARK    3  A    between atoms: C6_9  and  C7_10
REMARK    4  A    between atoms: C10_14  and  C11_15
REMARK    5  A    between atoms: N3_17  and  C12_18
REMARK                            x       y       z     vdW  Elec       q    Type
REMARK                         _______ _______ _______ _____ _____    ______ ____
ROOT
ATOM      1  C7  UNL     1      18.572  42.585  33.448  0.00  0.00    +0.000 C 
ATOM      2  C8  UNL     1      19.798  43.275  32.944  0.00  0.00    +0.000 A 
ATOM      3  C9  UNL     1      20.839  42.399  32.892  0.00  0.00    +0.000 A 
ATOM      4  O2  UNL     1      20.463  41.138  33.305  0.00  0.00    +0.000 OA
ATOM      5  C10 UNL     1      19.081  41.123  33.669  0.00  0.00    +0.000 C 
ATOM      6  C18 UNL     1      22.101  42.810  32.473  0.00  0.00    +0.000 A 
ATOM      7  C19 UNL     1      23.197  41.940  32.405  0.00  0.00    +0.000 A 
ATOM      8  C20 UNL     1      24.438  42.423  31.977  0.00  0.00    +0.000 A 
ATOM      9  C21 UNL     1      24.587  43.768  31.620  0.00  0.00    +0.000 A 
ATOM     10  C22 UNL     1      23.495  44.643  31.688  0.00  0.00    +0.000 A 
ATOM     11  C23 UNL     1      22.248  44.173  32.114  0.00  0.00    +0.000 A 
ATOM     12  O4  UNL     1      21.204  45.008  32.185  0.00  0.00    +0.000 OA
ATOM     13  C24 UNL     1      19.994  44.613  32.589  0.00  0.00    +0.000 A 
ATOM     14  O5  UNL     1      19.047  45.440  32.646  0.00  0.00    +0.000 OA
ENDROOT
BRANCH   1  23
ATOM     15  C1  UNL     1      13.870  42.486  28.591  0.00  0.00    +0.000 C 
ATOM     16  N1  UNL     1      14.138  42.822  29.987  0.00  0.00    +0.000 N 
ATOM     17  C2  UNL     1      13.299  43.405  30.879  0.00  0.00    +0.000 A 
ATOM     18  O1  UNL     1      12.100  43.696  30.620  0.00  0.00    +0.000 OA
ATOM     19  N2  UNL     1      13.885  43.643  32.080  0.00  0.00    +0.000 N 
ATOM     20  C3  UNL     1      13.276  44.205  33.283  0.00  0.00    +0.000 C 
ATOM     21  C4  UNL     1      15.146  43.192  31.927  0.00  0.00    +0.000 A 
ATOM     22  C5  UNL     1      16.185  43.176  32.857  0.00  0.00    +0.000 A 
ATOM     23  C6  UNL     1      17.431  42.646  32.453  0.00  0.00    +0.000 A 
ATOM     24  C25 UNL     1      17.581  42.132  31.133  0.00  0.00    +0.000 A 
ATOM     25  C26 UNL     1      16.513  42.165  30.221  0.00  0.00    +0.000 A 
ATOM     26  C27 UNL     1      15.302  42.703  30.657  0.00  0.00    +0.000 A 
ENDBRANCH   1  23
BRANCH   5  27
ATOM     27  C11 UNL     1      18.932  40.695  35.102  0.00  0.00    +0.000 C 
ATOM     28  O3  UNL     1      18.311  41.440  35.908  0.00  0.00    +0.000 OA
ATOM     29  N3  UNL     1      19.494  39.448  35.545  0.00  0.00    +0.000 N 
ATOM     30  H10 UNL     1      19.753  38.742  34.819  0.00  0.00    +0.000 HD
BRANCH  29  31
ATOM     31  C12 UNL     1      19.625  39.068  36.925  0.00  0.00    +0.000 A 
ATOM     32  C13 UNL     1      19.012  37.904  37.427  0.00  0.00    +0.000 A 
ATOM     33  C14 UNL     1      19.126  37.576  38.781  0.00  0.00    +0.000 A 
ATOM     34  C15 UNL     1      19.839  38.409  39.647  0.00  0.00    +0.000 A 
ATOM     35  C16 UNL     1      20.435  39.575  39.161  0.00  0.00    +0.000 A 
ATOM     36  C17 UNL     1      20.323  39.908  37.807  0.00  0.00    +0.000 A 
ENDBRANCH  29  31
ENDBRANCH   5  27
TORSDOF 3
ENDMDL
