MODEL 1
REMARK VINA RESULT:    -8.172      0.000      0.000
REMARK INTER + INTRA:         -11.932
REMARK INTER:                 -11.038
REMARK INTRA:                  -0.894
REMARK UNBOUND:                -0.894
REMARK  Name = CNP0022627_1.pdb
REMARK  6 active torsions:
REMARK  status: ('A' for Active; 'I' for Inactive)
REMARK    1  A    between atoms: C1_2  and  O2_14
REMARK    2  A    between atoms: N1_3  and  C2_4
REMARK    3  A    between atoms: O2_14  and  C12_15
REMARK    4  A    between atoms: C17_22  and  N2_23
REMARK    5  A    between atoms: N2_23  and  S1_24
REMARK    6  A    between atoms: S1_24  and  C18_27
REMARK                            x       y       z     vdW  Elec       q    Type
REMARK                         _______ _______ _______ _____ _____    ______ ____
ROOT
ATOM      1  C12 UNL     1      19.782  43.125  33.479  0.00  0.00    +0.000 C 
ATOM      2  C13 UNL     1      18.902  44.352  33.584  0.00  0.00    +0.000 C 
ATOM      3  O3  UNL     1      19.642  45.476  33.170  0.00  0.00    +0.000 OA
ATOM      4  C14 UNL     1      20.734  45.015  32.397  0.00  0.00    +0.000 C 
ATOM      5  C15 UNL     1      20.751  43.502  32.386  0.00  0.00    +0.000 C 
ATOM      6  O4  UNL     1      20.323  43.025  31.124  0.00  0.00    +0.000 OA
ATOM      7  C16 UNL     1      19.938  44.136  30.352  0.00  0.00    +0.000 C 
ATOM      8  C17 UNL     1      20.560  45.395  30.947  0.00  0.00    +0.000 C 
ENDROOT
BRANCH   8   9
ATOM      9  N2  UNL     1      21.874  45.703  30.354  0.00  0.00    +0.000 NA
ATOM     10  H17 UNL     1      21.791  45.848  29.321  0.00  0.00    +0.000 HD
BRANCH   9  11
ATOM     11  S1  UNL     1      22.560  47.140  31.055  0.00  0.00    +0.000 S 
ATOM     12  O5  UNL     1      23.473  47.792  30.056  0.00  0.00    +0.000 OA
ATOM     13  O6  UNL     1      21.474  48.116  31.418  0.00  0.00    +0.000 OA
BRANCH  11  14
ATOM     14  C18 UNL     1      23.491  46.708  32.486  0.00  0.00    +0.000 A 
ATOM     15  C19 UNL     1      24.580  45.835  32.365  0.00  0.00    +0.000 A 
ATOM     16  C20 UNL     1      25.313  45.456  33.492  0.00  0.00    +0.000 A 
ATOM     17  C21 UNL     1      24.962  45.946  34.758  0.00  0.00    +0.000 A 
ATOM     18  C22 UNL     1      25.688  45.570  35.899  0.00  0.00    +0.000 A 
ATOM     19  C23 UNL     1      25.324  46.062  37.156  0.00  0.00    +0.000 A 
ATOM     20  C24 UNL     1      24.237  46.931  37.283  0.00  0.00    +0.000 A 
ATOM     21  C25 UNL     1      23.505  47.313  36.156  0.00  0.00    +0.000 A 
ATOM     22  C26 UNL     1      23.860  46.826  34.887  0.00  0.00    +0.000 A 
ATOM     23  C27 UNL     1      23.131  47.201  33.748  0.00  0.00    +0.000 A 
ENDBRANCH  11  14
ENDBRANCH   9  11
ENDBRANCH   8   9
BRANCH   1  24
ATOM     24  O2  UNL     1      19.006  41.970  33.156  0.00  0.00    +0.000 OA
BRANCH  24  26
ATOM     25  O1  UNL     1      17.461  40.726  34.341  0.00  0.00    +0.000 OA
ATOM     26  C1  UNL     1      18.671  40.988  34.094  0.00  0.00    +0.000 C 
ATOM     27  N1  UNL     1      19.718  40.301  34.789  0.00  0.00    +0.000 N 
ATOM     28  H1  UNL     1      20.695  40.648  34.658  0.00  0.00    +0.000 HD
BRANCH  27  29
ATOM     29  C2  UNL     1      19.485  39.185  35.664  0.00  0.00    +0.000 A 
ATOM     30  C3  UNL     1      19.216  37.920  35.115  0.00  0.00    +0.000 A 
ATOM     31  C4  UNL     1      19.044  36.807  35.937  0.00  0.00    +0.000 A 
ATOM     32  C5  UNL     1      19.143  36.933  37.321  0.00  0.00    +0.000 A 
ATOM     33  C6  UNL     1      19.412  38.182  37.898  0.00  0.00    +0.000 A 
ATOM     34  C7  UNL     1      19.508  38.306  39.294  0.00  0.00    +0.000 A 
ATOM     35  C8  UNL     1      19.762  39.550  39.873  0.00  0.00    +0.000 A 
ATOM     36  C9  UNL     1      19.916  40.680  39.069  0.00  0.00    +0.000 A 
ATOM     37  C10 UNL     1      19.825  40.573  37.678  0.00  0.00    +0.000 A 
ATOM     38  C11 UNL     1      19.583  39.324  37.070  0.00  0.00    +0.000 A 
ENDBRANCH  27  29
ENDBRANCH  24  26
ENDBRANCH   1  24
TORSDOF 6
ENDMDL
MODEL 2
REMARK VINA RESULT:    -8.143      2.469      2.662
REMARK INTER + INTRA:         -11.894
REMARK INTER:                 -11.101
REMARK INTRA:                  -0.793
REMARK UNBOUND:                -0.894
REMARK  Name = CNP0022627_1.pdb
REMARK  6 active torsions:
REMARK  status: ('A' for Active; 'I' for Inactive)
REMARK    1  A    between atoms: C1_2  and  O2_14
REMARK    2  A    between atoms: N1_3  and  C2_4
REMARK    3  A    between atoms: O2_14  and  C12_15
REMARK    4  A    between atoms: C17_22  and  N2_23
REMARK    5  A    between atoms: N2_23  and  S1_24
REMARK    6  A    between atoms: S1_24  and  C18_27
REMARK                            x       y       z     vdW  Elec       q    Type
REMARK                         _______ _______ _______ _____ _____    ______ ____
ROOT
ATOM      1  C12 UNL     1      18.724  43.755  33.186  0.00  0.00    +0.000 C 
ATOM      2  C13 UNL     1      18.466  44.800  32.122  0.00  0.00    +0.000 C 
ATOM      3  O3  UNL     1      19.399  45.843  32.276  0.00  0.00    +0.000 OA
ATOM      4  C14 UNL     1      20.485  45.344  33.033  0.00  0.00    +0.000 C 
ATOM      5  C15 UNL     1      20.197  43.924  33.468  0.00  0.00    +0.000 C 
ATOM      6  O4  UNL     1      20.978  43.020  32.712  0.00  0.00    +0.000 OA
ATOM      7  C16 UNL     1      21.683  43.763  31.746  0.00  0.00    +0.000 C 
ATOM      8  C17 UNL     1      21.722  45.225  32.177  0.00  0.00    +0.000 C 
ENDROOT
BRANCH   8   9
ATOM      9  N2  UNL     1      22.916  45.538  32.984  0.00  0.00    +0.000 NA
ATOM     10  H17 UNL     1      23.791  45.320  32.454  0.00  0.00    +0.000 HD
BRANCH   9  11
ATOM     11  S1  UNL     1      22.950  47.219  33.431  0.00  0.00    +0.000 S 
ATOM     12  O5  UNL     1      22.212  48.023  32.398  0.00  0.00    +0.000 OA
ATOM     13  O6  UNL     1      22.279  47.421  34.762  0.00  0.00    +0.000 OA
BRANCH  11  14
ATOM     14  C18 UNL     1      24.621  47.774  33.503  0.00  0.00    +0.000 A 
ATOM     15  C19 UNL     1      25.657  46.836  33.593  0.00  0.00    +0.000 A 
ATOM     16  C20 UNL     1      26.987  47.256  33.681  0.00  0.00    +0.000 A 
ATOM     17  C21 UNL     1      27.294  48.624  33.684  0.00  0.00    +0.000 A 
ATOM     18  C22 UNL     1      28.626  49.059  33.777  0.00  0.00    +0.000 A 
ATOM     19  C23 UNL     1      28.919  50.425  33.783  0.00  0.00    +0.000 A 
ATOM     20  C24 UNL     1      27.888  51.366  33.697  0.00  0.00    +0.000 A 
ATOM     21  C25 UNL     1      26.558  50.947  33.605  0.00  0.00    +0.000 A 
ATOM     22  C26 UNL     1      26.250  49.576  33.597  0.00  0.00    +0.000 A 
ATOM     23  C27 UNL     1      24.918  49.143  33.508  0.00  0.00    +0.000 A 
ENDBRANCH  11  14
ENDBRANCH   9  11
ENDBRANCH   8   9
BRANCH   1  24
ATOM     24  O2  UNL     1      18.399  42.450  32.705  0.00  0.00    +0.000 OA
BRANCH  24  26
ATOM     25  O1  UNL     1      16.924  41.030  33.775  0.00  0.00    +0.000 OA
ATOM     26  C1  UNL     1      18.119  41.373  33.551  0.00  0.00    +0.000 C 
ATOM     27  N1  UNL     1      19.202  40.678  34.180  0.00  0.00    +0.000 N 
ATOM     28  H1  UNL     1      20.160  41.083  34.079  0.00  0.00    +0.000 HD
BRANCH  27  29
ATOM     29  C2  UNL     1      19.029  39.477  34.951  0.00  0.00    +0.000 A 
ATOM     30  C3  UNL     1      18.595  38.303  34.314  0.00  0.00    +0.000 A 
ATOM     31  C4  UNL     1      18.474  37.109  35.024  0.00  0.00    +0.000 A 
ATOM     32  C5  UNL     1      18.790  37.062  36.380  0.00  0.00    +0.000 A 
ATOM     33  C6  UNL     1      19.227  38.217  37.043  0.00  0.00    +0.000 A 
ATOM     34  C7  UNL     1      19.542  38.168  38.410  0.00  0.00    +0.000 A 
ATOM     35  C8  UNL     1      19.965  39.319  39.077  0.00  0.00    +0.000 A 
ATOM     36  C9  UNL     1      20.071  40.528  38.389  0.00  0.00    +0.000 A 
ATOM     37  C10 UNL     1      19.763  40.594  37.028  0.00  0.00    +0.000 A 
ATOM     38  C11 UNL     1      19.349  39.441  36.331  0.00  0.00    +0.000 A 
ENDBRANCH  27  29
ENDBRANCH  24  26
ENDBRANCH   1  24
TORSDOF 6
ENDMDL
MODEL 3
REMARK VINA RESULT:    -8.040      8.468     12.334
REMARK INTER + INTRA:         -11.754
REMARK INTER:                 -10.635
REMARK INTRA:                  -1.119
REMARK UNBOUND:                -0.894
REMARK  Name = CNP0022627_1.pdb
REMARK  6 active torsions:
REMARK  status: ('A' for Active; 'I' for Inactive)
REMARK    1  A    between atoms: C1_2  and  O2_14
REMARK    2  A    between atoms: N1_3  and  C2_4
REMARK    3  A    between atoms: O2_14  and  C12_15
REMARK    4  A    between atoms: C17_22  and  N2_23
REMARK    5  A    between atoms: N2_23  and  S1_24
REMARK    6  A    between atoms: S1_24  and  C18_27
REMARK                            x       y       z     vdW  Elec       q    Type
REMARK                         _______ _______ _______ _____ _____    ______ ____
ROOT
ATOM      1  C12 UNL     1      25.203  35.065  41.036  0.00  0.00    +0.000 C 
ATOM      2  C13 UNL     1      24.250  34.505  42.070  0.00  0.00    +0.000 C 
ATOM      3  O3  UNL     1      22.959  34.442  41.509  0.00  0.00    +0.000 OA
ATOM      4  C14 UNL     1      23.098  34.479  40.101  0.00  0.00    +0.000 C 
ATOM      5  C15 UNL     1      24.553  34.666  39.733  0.00  0.00    +0.000 C 
ATOM      6  O4  UNL     1      25.084  33.453  39.237  0.00  0.00    +0.000 OA
ATOM      7  C16 UNL     1      24.087  32.467  39.353  0.00  0.00    +0.000 C 
ATOM      8  C17 UNL     1      22.730  33.147  39.494  0.00  0.00    +0.000 C 
ENDROOT
BRANCH   8   9
ATOM      9  N2  UNL     1      22.073  33.360  38.192  0.00  0.00    +0.000 NA
ATOM     10  H17 UNL     1      22.072  32.480  37.626  0.00  0.00    +0.000 HD
BRANCH   9  11
ATOM     11  S1  UNL     1      20.426  33.883  38.395  0.00  0.00    +0.000 S 
ATOM     12  O5  UNL     1      19.561  33.208  37.368  0.00  0.00    +0.000 OA
ATOM     13  O6  UNL     1      19.923  33.509  39.762  0.00  0.00    +0.000 OA
BRANCH  11  14
ATOM     14  C18 UNL     1      20.330  35.627  38.168  0.00  0.00    +0.000 A 
ATOM     15  C19 UNL     1      20.664  36.182  36.925  0.00  0.00    +0.000 A 
ATOM     16  C20 UNL     1      20.623  37.565  36.734  0.00  0.00    +0.000 A 
ATOM     17  C21 UNL     1      20.251  38.411  37.788  0.00  0.00    +0.000 A 
ATOM     18  C22 UNL     1      20.211  39.803  37.609  0.00  0.00    +0.000 A 
ATOM     19  C23 UNL     1      19.843  40.636  38.669  0.00  0.00    +0.000 A 
ATOM     20  C24 UNL     1      19.512  40.088  39.912  0.00  0.00    +0.000 A 
ATOM     21  C25 UNL     1      19.548  38.705  40.104  0.00  0.00    +0.000 A 
ATOM     22  C26 UNL     1      19.917  37.856  39.047  0.00  0.00    +0.000 A 
ATOM     23  C27 UNL     1      19.960  36.465  39.228  0.00  0.00    +0.000 A 
ENDBRANCH  11  14
ENDBRANCH   9  11
ENDBRANCH   8   9
BRANCH   1  24
ATOM     24  O2  UNL     1      26.508  34.508  41.196  0.00  0.00    +0.000 OA
BRANCH  24  26
ATOM     25  O1  UNL     1      28.802  34.625  40.942  0.00  0.00    +0.000 OA
ATOM     26  C1  UNL     1      27.678  35.194  40.855  0.00  0.00    +0.000 C 
ATOM     27  N1  UNL     1      27.587  36.559  40.431  0.00  0.00    +0.000 N 
ATOM     28  H1  UNL     1      26.659  37.031  40.510  0.00  0.00    +0.000 HD
BRANCH  27  29
ATOM     29  C2  UNL     1      28.708  37.306  39.927  0.00  0.00    +0.000 A 
ATOM     30  C3  UNL     1      29.025  37.241  38.560  0.00  0.00    +0.000 A 
ATOM     31  C4  UNL     1      30.070  37.999  38.033  0.00  0.00    +0.000 A 
ATOM     32  C5  UNL     1      30.814  38.840  38.858  0.00  0.00    +0.000 A 
ATOM     33  C6  UNL     1      30.521  38.927  40.226  0.00  0.00    +0.000 A 
ATOM     34  C7  UNL     1      31.275  39.774  41.055  0.00  0.00    +0.000 A 
ATOM     35  C8  UNL     1      30.995  39.853  42.420  0.00  0.00    +0.000 A 
ATOM     36  C9  UNL     1      29.968  39.086  42.970  0.00  0.00    +0.000 A 
ATOM     37  C10 UNL     1      29.207  38.240  42.159  0.00  0.00    +0.000 A 
ATOM     38  C11 UNL     1      29.462  38.155  40.775  0.00  0.00    +0.000 A 
ENDBRANCH  27  29
ENDBRANCH  24  26
ENDBRANCH   1  24
TORSDOF 6
ENDMDL
MODEL 4
REMARK VINA RESULT:    -7.999     13.783     15.923
REMARK INTER + INTRA:         -11.699
REMARK INTER:                 -10.535
REMARK INTRA:                  -1.164
REMARK UNBOUND:                -0.894
REMARK  Name = CNP0022627_1.pdb
REMARK  6 active torsions:
REMARK  status: ('A' for Active; 'I' for Inactive)
REMARK    1  A    between atoms: C1_2  and  O2_14
REMARK    2  A    between atoms: N1_3  and  C2_4
REMARK    3  A    between atoms: O2_14  and  C12_15
REMARK    4  A    between atoms: C17_22  and  N2_23
REMARK    5  A    between atoms: N2_23  and  S1_24
REMARK    6  A    between atoms: S1_24  and  C18_27
REMARK                            x       y       z     vdW  Elec       q    Type
REMARK                         _______ _______ _______ _____ _____    ______ ____
ROOT
ATOM      1  C12 UNL     1       9.381  49.988  44.090  0.00  0.00    +0.000 C 
ATOM      2  C13 UNL     1       9.096  51.013  45.166  0.00  0.00    +0.000 C 
ATOM      3  O3  UNL     1       9.664  50.569  46.376  0.00  0.00    +0.000 OA
ATOM      4  C14 UNL     1      10.651  49.605  46.062  0.00  0.00    +0.000 C 
ATOM      5  C15 UNL     1      10.659  49.345  44.571  0.00  0.00    +0.000 C 
ATOM      6  O4  UNL     1      11.797  49.947  43.984  0.00  0.00    +0.000 OA
ATOM      7  C16 UNL     1      12.474  50.661  44.989  0.00  0.00    +0.000 C 
ATOM      8  C17 UNL     1      12.032  50.140  46.352  0.00  0.00    +0.000 C 
ENDROOT
BRANCH   8   9
ATOM      9  N2  UNL     1      12.894  49.049  46.840  0.00  0.00    +0.000 NA
ATOM     10  H17 UNL     1      13.688  48.877  46.179  0.00  0.00    +0.000 HD
BRANCH   9  11
ATOM     11  S1  UNL     1      13.556  49.420  48.406  0.00  0.00    +0.000 S 
ATOM     12  O5  UNL     1      12.488  50.042  49.261  0.00  0.00    +0.000 OA
ATOM     13  O6  UNL     1      14.038  48.166  49.081  0.00  0.00    +0.000 OA
BRANCH  11  14
ATOM     14  C18 UNL     1      14.884  50.563  48.226  0.00  0.00    +0.000 A 
ATOM     15  C19 UNL     1      15.246  51.377  49.307  0.00  0.00    +0.000 A 
ATOM     16  C20 UNL     1      16.277  52.311  49.176  0.00  0.00    +0.000 A 
ATOM     17  C21 UNL     1      16.956  52.444  47.957  0.00  0.00    +0.000 A 
ATOM     18  C22 UNL     1      17.991  53.382  47.811  0.00  0.00    +0.000 A 
ATOM     19  C23 UNL     1      18.657  53.507  46.589  0.00  0.00    +0.000 A 
ATOM     20  C24 UNL     1      18.298  52.699  45.506  0.00  0.00    +0.000 A 
ATOM     21  C25 UNL     1      17.269  51.762  45.637  0.00  0.00    +0.000 A 
ATOM     22  C26 UNL     1      16.591  51.626  46.860  0.00  0.00    +0.000 A 
ATOM     23  C27 UNL     1      15.555  50.690  47.003  0.00  0.00    +0.000 A 
ENDBRANCH  11  14
ENDBRANCH   9  11
ENDBRANCH   8   9
BRANCH   1  24
ATOM     24  O2  UNL     1       9.525  50.617  42.816  0.00  0.00    +0.000 OA
BRANCH  24  26
ATOM     25  O1  UNL     1       8.213  49.682  41.159  0.00  0.00    +0.000 OA
ATOM     26  C1  UNL     1       9.367  49.935  41.605  0.00  0.00    +0.000 C 
ATOM     27  N1  UNL     1      10.530  49.504  40.890  0.00  0.00    +0.000 N 
ATOM     28  H1  UNL     1      11.456  49.607  41.363  0.00  0.00    +0.000 HD
BRANCH  27  29
ATOM     29  C2  UNL     1      10.479  48.922  39.576  0.00  0.00    +0.000 A 
ATOM     30  C3  UNL     1      10.505  49.759  38.448  0.00  0.00    +0.000 A 
ATOM     31  C4  UNL     1      10.516  49.222  37.161  0.00  0.00    +0.000 A 
ATOM     32  C5  UNL     1      10.508  47.841  36.975  0.00  0.00    +0.000 A 
ATOM     33  C6  UNL     1      10.484  46.981  38.081  0.00  0.00    +0.000 A 
ATOM     34  C7  UNL     1      10.473  45.590  37.891  0.00  0.00    +0.000 A 
ATOM     35  C8  UNL     1      10.436  44.729  38.989  0.00  0.00    +0.000 A 
ATOM     36  C9  UNL     1      10.402  45.247  40.284  0.00  0.00    +0.000 A 
ATOM     37  C10 UNL     1      10.414  46.629  40.492  0.00  0.00    +0.000 A 
ATOM     38  C11 UNL     1      10.467  47.517  39.398  0.00  0.00    +0.000 A 
ENDBRANCH  27  29
ENDBRANCH  24  26
ENDBRANCH   1  24
TORSDOF 6
ENDMDL
MODEL 5
REMARK VINA RESULT:    -7.926      8.622     12.635
REMARK INTER + INTRA:         -11.600
REMARK INTER:                 -10.614
REMARK INTRA:                  -0.986
REMARK UNBOUND:                -0.894
REMARK  Name = CNP0022627_1.pdb
REMARK  6 active torsions:
REMARK  status: ('A' for Active; 'I' for Inactive)
REMARK    1  A    between atoms: C1_2  and  O2_14
REMARK    2  A    between atoms: N1_3  and  C2_4
REMARK    3  A    between atoms: O2_14  and  C12_15
REMARK    4  A    between atoms: C17_22  and  N2_23
REMARK    5  A    between atoms: N2_23  and  S1_24
REMARK    6  A    between atoms: S1_24  and  C18_27
REMARK                            x       y       z     vdW  Elec       q    Type
REMARK                         _______ _______ _______ _____ _____    ______ ____
ROOT
ATOM      1  C12 UNL     1      25.758  35.239  41.139  0.00  0.00    +0.000 C 
ATOM      2  C13 UNL     1      24.903  34.713  42.271  0.00  0.00    +0.000 C 
ATOM      3  O3  UNL     1      23.581  34.563  41.809  0.00  0.00    +0.000 OA
ATOM      4  C14 UNL     1      23.621  34.511  40.396  0.00  0.00    +0.000 C 
ATOM      5  C15 UNL     1      25.038  34.730  39.914  0.00  0.00    +0.000 C 
ATOM      6  O4  UNL     1      25.586  33.508  39.458  0.00  0.00    +0.000 OA
ATOM      7  C16 UNL     1      24.643  32.494  39.708  0.00  0.00    +0.000 C 
ATOM      8  C17 UNL     1      23.270  33.129  39.902  0.00  0.00    +0.000 C 
ENDROOT
BRANCH   8   9
ATOM      9  N2  UNL     1      22.516  33.230  38.639  0.00  0.00    +0.000 NA
ATOM     10  H17 UNL     1      22.440  32.294  38.175  0.00  0.00    +0.000 HD
BRANCH   9  11
ATOM     11  S1  UNL     1      20.910  33.839  38.911  0.00  0.00    +0.000 S 
ATOM     12  O5  UNL     1      19.954  33.154  37.975  0.00  0.00    +0.000 OA
ATOM     13  O6  UNL     1      20.476  33.560  40.324  0.00  0.00    +0.000 OA
BRANCH  11  14
ATOM     14  C18 UNL     1      20.877  35.571  38.597  0.00  0.00    +0.000 A 
ATOM     15  C19 UNL     1      21.615  36.094  37.526  0.00  0.00    +0.000 A 
ATOM     16  C20 UNL     1      21.626  37.469  37.278  0.00  0.00    +0.000 A 
ATOM     17  C21 UNL     1      20.900  38.339  38.103  0.00  0.00    +0.000 A 
ATOM     18  C22 UNL     1      20.907  39.723  37.866  0.00  0.00    +0.000 A 
ATOM     19  C23 UNL     1      20.183  40.580  38.699  0.00  0.00    +0.000 A 
ATOM     20  C24 UNL     1      19.447  40.065  39.771  0.00  0.00    +0.000 A 
ATOM     21  C25 UNL     1      19.432  38.690  40.018  0.00  0.00    +0.000 A 
ATOM     22  C26 UNL     1      20.156  37.817  39.189  0.00  0.00    +0.000 A 
ATOM     23  C27 UNL     1      20.150  36.434  39.428  0.00  0.00    +0.000 A 
ENDBRANCH  11  14
ENDBRANCH   9  11
ENDBRANCH   8   9
BRANCH   1  24
ATOM     24  O2  UNL     1      27.094  34.745  41.239  0.00  0.00    +0.000 OA
BRANCH  24  26
ATOM     25  O1  UNL     1      29.371  35.090  41.419  0.00  0.00    +0.000 OA
ATOM     26  C1  UNL     1      28.213  35.581  41.313  0.00  0.00    +0.000 C 
ATOM     27  N1  UNL     1      28.027  37.001  41.291  0.00  0.00    +0.000 N 
ATOM     28  H1  UNL     1      27.048  37.362  41.346  0.00  0.00    +0.000 HD
BRANCH  27  29
ATOM     29  C2  UNL     1      29.114  37.939  41.221  0.00  0.00    +0.000 A 
ATOM     30  C3  UNL     1      29.608  38.516  42.402  0.00  0.00    +0.000 A 
ATOM     31  C4  UNL     1      30.699  39.383  42.371  0.00  0.00    +0.000 A 
ATOM     32  C5  UNL     1      31.322  39.687  41.162  0.00  0.00    +0.000 A 
ATOM     33  C6  UNL     1      30.852  39.126  39.966  0.00  0.00    +0.000 A 
ATOM     34  C7  UNL     1      31.480  39.436  38.749  0.00  0.00    +0.000 A 
ATOM     35  C8  UNL     1      31.007  38.890  37.554  0.00  0.00    +0.000 A 
ATOM     36  C9  UNL     1      29.903  38.037  37.563  0.00  0.00    +0.000 A 
ATOM     37  C10 UNL     1      29.268  37.717  38.765  0.00  0.00    +0.000 A 
ATOM     38  C11 UNL     1      29.737  38.245  39.985  0.00  0.00    +0.000 A 
ENDBRANCH  27  29
ENDBRANCH  24  26
ENDBRANCH   1  24
TORSDOF 6
ENDMDL
MODEL 6
REMARK VINA RESULT:    -7.798      8.861     10.841
REMARK INTER + INTRA:         -11.427
REMARK INTER:                 -10.548
REMARK INTRA:                  -0.879
REMARK UNBOUND:                -0.894
REMARK  Name = CNP0022627_1.pdb
REMARK  6 active torsions:
REMARK  status: ('A' for Active; 'I' for Inactive)
REMARK    1  A    between atoms: C1_2  and  O2_14
REMARK    2  A    between atoms: N1_3  and  C2_4
REMARK    3  A    between atoms: O2_14  and  C12_15
REMARK    4  A    between atoms: C17_22  and  N2_23
REMARK    5  A    between atoms: N2_23  and  S1_24
REMARK    6  A    between atoms: S1_24  and  C18_27
REMARK                            x       y       z     vdW  Elec       q    Type
REMARK                         _______ _______ _______ _____ _____    ______ ____
ROOT
ATOM      1  C12 UNL     1      27.220  34.786  39.472  0.00  0.00    +0.000 C 
ATOM      2  C13 UNL     1      28.610  34.209  39.623  0.00  0.00    +0.000 C 
ATOM      3  O3  UNL     1      29.475  34.870  38.729  0.00  0.00    +0.000 OA
ATOM      4  C14 UNL     1      28.867  36.095  38.367  0.00  0.00    +0.000 C 
ATOM      5  C15 UNL     1      27.493  36.191  38.991  0.00  0.00    +0.000 C 
ATOM      6  O4  UNL     1      27.514  37.113  40.063  0.00  0.00    +0.000 OA
ATOM      7  C16 UNL     1      28.842  37.546  40.232  0.00  0.00    +0.000 C 
ATOM      8  C17 UNL     1      29.624  37.260  38.955  0.00  0.00    +0.000 C 
ENDROOT
BRANCH   8   9
ATOM      9  N2  UNL     1      29.595  38.396  38.015  0.00  0.00    +0.000 NA
ATOM     10  H17 UNL     1      29.020  39.182  38.399  0.00  0.00    +0.000 HD
BRANCH   9  11
ATOM     11  S1  UNL     1      31.198  38.993  37.698  0.00  0.00    +0.000 S 
ATOM     12  O5  UNL     1      31.508  40.112  38.653  0.00  0.00    +0.000 OA
ATOM     13  O6  UNL     1      32.212  37.901  37.897  0.00  0.00    +0.000 OA
BRANCH  11  14
ATOM     14  C18 UNL     1      31.281  39.607  36.050  0.00  0.00    +0.000 A 
ATOM     15  C19 UNL     1      30.981  40.952  35.797  0.00  0.00    +0.000 A 
ATOM     16  C20 UNL     1      31.012  41.451  34.492  0.00  0.00    +0.000 A 
ATOM     17  C21 UNL     1      31.340  40.607  33.423  0.00  0.00    +0.000 A 
ATOM     18  C22 UNL     1      31.371  41.096  32.107  0.00  0.00    +0.000 A 
ATOM     19  C23 UNL     1      31.695  40.242  31.049  0.00  0.00    +0.000 A 
ATOM     20  C24 UNL     1      31.992  38.898  31.295  0.00  0.00    +0.000 A 
ATOM     21  C25 UNL     1      31.965  38.398  32.599  0.00  0.00    +0.000 A 
ATOM     22  C26 UNL     1      31.640  39.245  33.672  0.00  0.00    +0.000 A 
ATOM     23  C27 UNL     1      31.608  38.755  34.987  0.00  0.00    +0.000 A 
ENDBRANCH  11  14
ENDBRANCH   9  11
ENDBRANCH   8   9
BRANCH   1  24
ATOM     24  O2  UNL     1      26.519  34.755  40.716  0.00  0.00    +0.000 OA
BRANCH  24  26
ATOM     25  O1  UNL     1      24.541  34.887  41.902  0.00  0.00    +0.000 OA
ATOM     26  C1  UNL     1      25.126  34.665  40.805  0.00  0.00    +0.000 C 
ATOM     27  N1  UNL     1      24.374  34.295  39.644  0.00  0.00    +0.000 N 
ATOM     28  H1  UNL     1      24.907  33.984  38.801  0.00  0.00    +0.000 HD
BRANCH  27  29
ATOM     29  C2  UNL     1      22.938  34.312  39.595  0.00  0.00    +0.000 A 
ATOM     30  C3  UNL     1      22.211  33.321  40.276  0.00  0.00    +0.000 A 
ATOM     31  C4  UNL     1      20.817  33.346  40.295  0.00  0.00    +0.000 A 
ATOM     32  C5  UNL     1      20.122  34.361  39.641  0.00  0.00    +0.000 A 
ATOM     33  C6  UNL     1      20.820  35.364  38.954  0.00  0.00    +0.000 A 
ATOM     34  C7  UNL     1      20.116  36.383  38.292  0.00  0.00    +0.000 A 
ATOM     35  C8  UNL     1      20.807  37.377  37.596  0.00  0.00    +0.000 A 
ATOM     36  C9  UNL     1      22.201  37.357  37.546  0.00  0.00    +0.000 A 
ATOM     37  C10 UNL     1      22.916  36.350  38.200  0.00  0.00    +0.000 A 
ATOM     38  C11 UNL     1      22.240  35.346  38.923  0.00  0.00    +0.000 A 
ENDBRANCH  27  29
ENDBRANCH  24  26
ENDBRANCH   1  24
TORSDOF 6
ENDMDL
MODEL 7
REMARK VINA RESULT:    -7.698      5.512     10.243
REMARK INTER + INTRA:         -11.292
REMARK INTER:                 -10.356
REMARK INTRA:                  -0.937
REMARK UNBOUND:                -0.894
REMARK  Name = CNP0022627_1.pdb
REMARK  6 active torsions:
REMARK  status: ('A' for Active; 'I' for Inactive)
REMARK    1  A    between atoms: C1_2  and  O2_14
REMARK    2  A    between atoms: N1_3  and  C2_4
REMARK    3  A    between atoms: O2_14  and  C12_15
REMARK    4  A    between atoms: C17_22  and  N2_23
REMARK    5  A    between atoms: N2_23  and  S1_24
REMARK    6  A    between atoms: S1_24  and  C18_27
REMARK                            x       y       z     vdW  Elec       q    Type
REMARK                         _______ _______ _______ _____ _____    ______ ____
ROOT
ATOM      1  C12 UNL     1      19.744  39.763  37.946  0.00  0.00    +0.000 C 
ATOM      2  C13 UNL     1      20.403  39.784  39.307  0.00  0.00    +0.000 C 
ATOM      3  O3  UNL     1      20.135  38.564  39.959  0.00  0.00    +0.000 OA
ATOM      4  C14 UNL     1      19.764  37.620  38.973  0.00  0.00    +0.000 C 
ATOM      5  C15 UNL     1      19.701  38.290  37.618  0.00  0.00    +0.000 C 
ATOM      6  O4  UNL     1      20.812  37.899  36.836  0.00  0.00    +0.000 OA
ATOM      7  C16 UNL     1      21.641  37.092  37.638  0.00  0.00    +0.000 C 
ATOM      8  C17 UNL     1      20.830  36.565  38.816  0.00  0.00    +0.000 C 
ENDROOT
BRANCH   8   9
ATOM      9  N2  UNL     1      20.202  35.263  38.524  0.00  0.00    +0.000 NA
ATOM     10  H17 UNL     1      19.721  35.282  37.595  0.00  0.00    +0.000 HD
BRANCH   9  11
ATOM     11  S1  UNL     1      21.380  33.984  38.505  0.00  0.00    +0.000 S 
ATOM     12  O5  UNL     1      20.725  32.700  38.928  0.00  0.00    +0.000 OA
ATOM     13  O6  UNL     1      21.935  33.803  37.119  0.00  0.00    +0.000 OA
BRANCH  11  14
ATOM     14  C18 UNL     1      22.678  34.364  39.634  0.00  0.00    +0.000 A 
ATOM     15  C19 UNL     1      22.469  34.197  41.009  0.00  0.00    +0.000 A 
ATOM     16  C20 UNL     1      23.475  34.521  41.923  0.00  0.00    +0.000 A 
ATOM     17  C21 UNL     1      24.704  35.021  41.469  0.00  0.00    +0.000 A 
ATOM     18  C22 UNL     1      25.722  35.354  42.378  0.00  0.00    +0.000 A 
ATOM     19  C23 UNL     1      26.940  35.855  41.912  0.00  0.00    +0.000 A 
ATOM     20  C24 UNL     1      27.154  36.027  40.541  0.00  0.00    +0.000 A 
ATOM     21  C25 UNL     1      26.149  35.699  39.626  0.00  0.00    +0.000 A 
ATOM     22  C26 UNL     1      24.919  35.195  40.080  0.00  0.00    +0.000 A 
ATOM     23  C27 UNL     1      23.902  34.865  39.171  0.00  0.00    +0.000 A 
ENDBRANCH  11  14
ENDBRANCH   9  11
ENDBRANCH   8   9
BRANCH   1  24
ATOM     24  O2  UNL     1      20.505  40.517  37.001  0.00  0.00    +0.000 OA
BRANCH  24  26
ATOM     25  O1  UNL     1      20.700  41.261  34.823  0.00  0.00    +0.000 OA
ATOM     26  C1  UNL     1      19.962  41.034  35.821  0.00  0.00    +0.000 C 
ATOM     27  N1  UNL     1      18.561  41.327  35.768  0.00  0.00    +0.000 N 
ATOM     28  H1  UNL     1      18.017  41.258  36.658  0.00  0.00    +0.000 HD
BRANCH  27  29
ATOM     29  C2  UNL     1      17.883  41.727  34.565  0.00  0.00    +0.000 A 
ATOM     30  C3  UNL     1      17.811  43.090  34.232  0.00  0.00    +0.000 A 
ATOM     31  C4  UNL     1      17.211  43.503  33.042  0.00  0.00    +0.000 A 
ATOM     32  C5  UNL     1      16.678  42.565  32.161  0.00  0.00    +0.000 A 
ATOM     33  C6  UNL     1      16.736  41.198  32.465  0.00  0.00    +0.000 A 
ATOM     34  C7  UNL     1      16.195  40.255  31.576  0.00  0.00    +0.000 A 
ATOM     35  C8  UNL     1      16.239  38.894  31.882  0.00  0.00    +0.000 A 
ATOM     36  C9  UNL     1      16.815  38.462  33.077  0.00  0.00    +0.000 A 
ATOM     37  C10 UNL     1      17.359  39.387  33.972  0.00  0.00    +0.000 A 
ATOM     38  C11 UNL     1      17.340  40.765  33.677  0.00  0.00    +0.000 A 
ENDBRANCH  27  29
ENDBRANCH  24  26
ENDBRANCH   1  24
TORSDOF 6
ENDMDL
MODEL 8
REMARK VINA RESULT:    -7.506      5.350      8.280
REMARK INTER + INTRA:         -11.032
REMARK INTER:                  -9.350
REMARK INTRA:                  -1.683
REMARK UNBOUND:                -0.894
REMARK  Name = CNP0022627_1.pdb
REMARK  6 active torsions:
REMARK  status: ('A' for Active; 'I' for Inactive)
REMARK    1  A    between atoms: C1_2  and  O2_14
REMARK    2  A    between atoms: N1_3  and  C2_4
REMARK    3  A    between atoms: O2_14  and  C12_15
REMARK    4  A    between atoms: C17_22  and  N2_23
REMARK    5  A    between atoms: N2_23  and  S1_24
REMARK    6  A    between atoms: S1_24  and  C18_27
REMARK                            x       y       z     vdW  Elec       q    Type
REMARK                         _______ _______ _______ _____ _____    ______ ____
ROOT
ATOM      1  C12 UNL     1      24.623  35.920  34.146  0.00  0.00    +0.000 C 
ATOM      2  C13 UNL     1      25.194  36.823  33.074  0.00  0.00    +0.000 C 
ATOM      3  O3  UNL     1      24.170  37.148  32.163  0.00  0.00    +0.000 OA
ATOM      4  C14 UNL     1      22.931  36.912  32.803  0.00  0.00    +0.000 C 
ATOM      5  C15 UNL     1      23.167  36.315  34.174  0.00  0.00    +0.000 C 
ATOM      6  O4  UNL     1      22.910  37.284  35.171  0.00  0.00    +0.000 OA
ATOM      7  C16 UNL     1      22.617  38.500  34.525  0.00  0.00    +0.000 C 
ATOM      8  C17 UNL     1      22.218  38.212  33.082  0.00  0.00    +0.000 C 
ENDROOT
BRANCH   8   9
ATOM      9  N2  UNL     1      20.764  38.022  32.931  0.00  0.00    +0.000 NA
ATOM     10  H17 UNL     1      20.428  37.227  33.524  0.00  0.00    +0.000 HD
BRANCH   9  11
ATOM     11  S1  UNL     1      19.890  39.455  33.391  0.00  0.00    +0.000 S 
ATOM     12  O5  UNL     1      20.598  40.663  32.845  0.00  0.00    +0.000 OA
ATOM     13  O6  UNL     1      18.497  39.423  32.826  0.00  0.00    +0.000 OA
BRANCH  11  14
ATOM     14  C18 UNL     1      19.831  39.569  35.147  0.00  0.00    +0.000 A 
ATOM     15  C19 UNL     1      20.179  40.773  35.774  0.00  0.00    +0.000 A 
ATOM     16  C20 UNL     1      20.167  40.875  37.167  0.00  0.00    +0.000 A 
ATOM     17  C21 UNL     1      19.811  39.770  37.951  0.00  0.00    +0.000 A 
ATOM     18  C22 UNL     1      19.800  39.858  39.353  0.00  0.00    +0.000 A 
ATOM     19  C23 UNL     1      19.447  38.747  40.123  0.00  0.00    +0.000 A 
ATOM     20  C24 UNL     1      19.102  37.542  39.504  0.00  0.00    +0.000 A 
ATOM     21  C25 UNL     1      19.110  37.440  38.110  0.00  0.00    +0.000 A 
ATOM     22  C26 UNL     1      19.463  38.549  37.323  0.00  0.00    +0.000 A 
ATOM     23  C27 UNL     1      19.476  38.458  35.923  0.00  0.00    +0.000 A 
ENDBRANCH  11  14
ENDBRANCH   9  11
ENDBRANCH   8   9
BRANCH   1  24
ATOM     24  O2  UNL     1      25.279  36.138  35.395  0.00  0.00    +0.000 OA
BRANCH  24  26
ATOM     25  O1  UNL     1      25.321  34.178  36.617  0.00  0.00    +0.000 OA
ATOM     26  C1  UNL     1      24.996  35.396  36.546  0.00  0.00    +0.000 C 
ATOM     27  N1  UNL     1      24.310  36.028  37.633  0.00  0.00    +0.000 N 
ATOM     28  H1  UNL     1      23.936  36.990  37.476  0.00  0.00    +0.000 HD
BRANCH  27  29
ATOM     29  C2  UNL     1      24.098  35.396  38.907  0.00  0.00    +0.000 A 
ATOM     30  C3  UNL     1      25.138  35.377  39.852  0.00  0.00    +0.000 A 
ATOM     31  C4  UNL     1      24.943  34.823  41.116  0.00  0.00    +0.000 A 
ATOM     32  C5  UNL     1      23.706  34.284  41.465  0.00  0.00    +0.000 A 
ATOM     33  C6  UNL     1      22.650  34.290  40.545  0.00  0.00    +0.000 A 
ATOM     34  C7  UNL     1      21.405  33.743  40.898  0.00  0.00    +0.000 A 
ATOM     35  C8  UNL     1      20.354  33.735  39.980  0.00  0.00    +0.000 A 
ATOM     36  C9  UNL     1      20.536  34.264  38.702  0.00  0.00    +0.000 A 
ATOM     37  C10 UNL     1      21.767  34.814  38.335  0.00  0.00    +0.000 A 
ATOM     38  C11 UNL     1      22.838  34.846  39.250  0.00  0.00    +0.000 A 
ENDBRANCH  27  29
ENDBRANCH  24  26
ENDBRANCH   1  24
TORSDOF 6
ENDMDL
MODEL 9
REMARK VINA RESULT:    -7.476      2.800      9.276
REMARK INTER + INTRA:         -10.992
REMARK INTER:                  -9.878
REMARK INTRA:                  -1.114
REMARK UNBOUND:                -0.894
REMARK  Name = CNP0022627_1.pdb
REMARK  6 active torsions:
REMARK  status: ('A' for Active; 'I' for Inactive)
REMARK    1  A    between atoms: C1_2  and  O2_14
REMARK    2  A    between atoms: N1_3  and  C2_4
REMARK    3  A    between atoms: O2_14  and  C12_15
REMARK    4  A    between atoms: C17_22  and  N2_23
REMARK    5  A    between atoms: N2_23  and  S1_24
REMARK    6  A    between atoms: S1_24  and  C18_27
REMARK                            x       y       z     vdW  Elec       q    Type
REMARK                         _______ _______ _______ _____ _____    ______ ____
ROOT
ATOM      1  C12 UNL     1      22.910  42.705  32.624  0.00  0.00    +0.000 C 
ATOM      2  C13 UNL     1      23.665  41.395  32.572  0.00  0.00    +0.000 C 
ATOM      3  O3  UNL     1      22.881  40.396  33.181  0.00  0.00    +0.000 OA
ATOM      4  C14 UNL     1      21.541  40.849  33.201  0.00  0.00    +0.000 C 
ATOM      5  C15 UNL     1      21.469  42.258  32.654  0.00  0.00    +0.000 C 
ATOM      6  O4  UNL     1      20.902  42.243  31.358  0.00  0.00    +0.000 OA
ATOM      7  C16 UNL     1      20.693  40.899  30.995  0.00  0.00    +0.000 C 
ATOM      8  C17 UNL     1      20.690  40.039  32.254  0.00  0.00    +0.000 C 
ENDROOT
BRANCH   8   9
ATOM      9  N2  UNL     1      19.337  39.878  32.817  0.00  0.00    +0.000 NA
ATOM     10  H17 UNL     1      18.606  40.092  32.099  0.00  0.00    +0.000 HD
BRANCH   9  11
ATOM     11  S1  UNL     1      19.083  38.255  33.391  0.00  0.00    +0.000 S 
ATOM     12  O5  UNL     1      17.712  37.795  32.985  0.00  0.00    +0.000 OA
ATOM     13  O6  UNL     1      20.097  37.322  32.789  0.00  0.00    +0.000 OA
BRANCH  11  14
ATOM     14  C18 UNL     1      19.201  38.229  35.148  0.00  0.00    +0.000 A 
ATOM     15  C19 UNL     1      18.929  37.042  35.842  0.00  0.00    +0.000 A 
ATOM     16  C20 UNL     1      18.988  37.008  37.237  0.00  0.00    +0.000 A 
ATOM     17  C21 UNL     1      19.316  38.165  37.956  0.00  0.00    +0.000 A 
ATOM     18  C22 UNL     1      19.374  38.145  39.360  0.00  0.00    +0.000 A 
ATOM     19  C23 UNL     1      19.697  39.307  40.065  0.00  0.00    +0.000 A 
ATOM     20  C24 UNL     1      19.966  40.495  39.379  0.00  0.00    +0.000 A 
ATOM     21  C25 UNL     1      19.911  40.530  37.983  0.00  0.00    +0.000 A 
ATOM     22  C26 UNL     1      19.587  39.369  37.261  0.00  0.00    +0.000 A 
ATOM     23  C27 UNL     1      19.527  39.392  35.859  0.00  0.00    +0.000 A 
ENDBRANCH  11  14
ENDBRANCH   9  11
ENDBRANCH   8   9
BRANCH   1  24
ATOM     24  O2  UNL     1      23.215  43.512  31.486  0.00  0.00    +0.000 OA
BRANCH  24  26
ATOM     25  O1  UNL     1      23.672  45.561  30.521  0.00  0.00    +0.000 OA
ATOM     26  C1  UNL     1      23.432  44.891  31.564  0.00  0.00    +0.000 C 
ATOM     27  N1  UNL     1      23.403  45.531  32.845  0.00  0.00    +0.000 N 
ATOM     28  H1  UNL     1      23.342  44.920  33.690  0.00  0.00    +0.000 HD
BRANCH  27  29
ATOM     29  C2  UNL     1      23.474  46.956  33.018  0.00  0.00    +0.000 A 
ATOM     30  C3  UNL     1      22.295  47.719  32.968  0.00  0.00    +0.000 A 
ATOM     31  C4  UNL     1      22.325  49.095  33.190  0.00  0.00    +0.000 A 
ATOM     32  C5  UNL     1      23.530  49.735  33.472  0.00  0.00    +0.000 A 
ATOM     33  C6  UNL     1      24.722  49.001  33.530  0.00  0.00    +0.000 A 
ATOM     34  C7  UNL     1      25.936  49.650  33.811  0.00  0.00    +0.000 A 
ATOM     35  C8  UNL     1      27.128  48.925  33.857  0.00  0.00    +0.000 A 
ATOM     36  C9  UNL     1      27.121  47.551  33.615  0.00  0.00    +0.000 A 
ATOM     37  C10 UNL     1      25.922  46.889  33.335  0.00  0.00    +0.000 A 
ATOM     38  C11 UNL     1      24.705  47.599  33.300  0.00  0.00    +0.000 A 
ENDBRANCH  27  29
ENDBRANCH  24  26
ENDBRANCH   1  24
TORSDOF 6
ENDMDL
MODEL 10
REMARK VINA RESULT:    -7.441      2.840      9.409
REMARK INTER + INTRA:         -10.945
REMARK INTER:                  -9.955
REMARK INTRA:                  -0.990
REMARK UNBOUND:                -0.894
REMARK  Name = CNP0022627_1.pdb
REMARK  6 active torsions:
REMARK  status: ('A' for Active; 'I' for Inactive)
REMARK    1  A    between atoms: C1_2  and  O2_14
REMARK    2  A    between atoms: N1_3  and  C2_4
REMARK    3  A    between atoms: O2_14  and  C12_15
REMARK    4  A    between atoms: C17_22  and  N2_23
REMARK    5  A    between atoms: N2_23  and  S1_24
REMARK    6  A    between atoms: S1_24  and  C18_27
REMARK                            x       y       z     vdW  Elec       q    Type
REMARK                         _______ _______ _______ _____ _____    ______ ____
ROOT
ATOM      1  C12 UNL     1      19.941  42.653  33.602  0.00  0.00    +0.000 C 
ATOM      2  C13 UNL     1      21.041  41.634  33.806  0.00  0.00    +0.000 C 
ATOM      3  O3  UNL     1      20.474  40.452  34.320  0.00  0.00    +0.000 OA
ATOM      4  C14 UNL     1      19.089  40.476  34.032  0.00  0.00    +0.000 C 
ATOM      5  C15 UNL     1      18.725  41.789  33.374  0.00  0.00    +0.000 C 
ATOM      6  O4  UNL     1      18.483  41.586  31.995  0.00  0.00    +0.000 OA
ATOM      7  C16 UNL     1      18.763  40.238  31.703  0.00  0.00    +0.000 C 
ATOM      8  C17 UNL     1      18.740  39.434  32.998  0.00  0.00    +0.000 C 
ENDROOT
BRANCH   8   9
ATOM      9  N2  UNL     1      17.406  38.876  33.287  0.00  0.00    +0.000 NA
ATOM     10  H17 UNL     1      16.729  39.118  32.527  0.00  0.00    +0.000 HD
BRANCH   9  11
ATOM     11  S1  UNL     1      17.467  37.143  33.436  0.00  0.00    +0.000 S 
ATOM     12  O5  UNL     1      16.075  36.614  33.634  0.00  0.00    +0.000 OA
ATOM     13  O6  UNL     1      18.037  36.530  32.186  0.00  0.00    +0.000 OA
BRANCH  11  14
ATOM     14  C18 UNL     1      18.450  36.707  34.830  0.00  0.00    +0.000 A 
ATOM     15  C19 UNL     1      19.293  35.591  34.759  0.00  0.00    +0.000 A 
ATOM     16  C20 UNL     1      20.059  35.211  35.864  0.00  0.00    +0.000 A 
ATOM     17  C21 UNL     1      19.987  35.944  37.057  0.00  0.00    +0.000 A 
ATOM     18  C22 UNL     1      20.748  35.569  38.176  0.00  0.00    +0.000 A 
ATOM     19  C23 UNL     1      20.663  36.306  39.360  0.00  0.00    +0.000 A 
ATOM     20  C24 UNL     1      19.821  37.419  39.438  0.00  0.00    +0.000 A 
ATOM     21  C25 UNL     1      19.058  37.803  38.332  0.00  0.00    +0.000 A 
ATOM     22  C26 UNL     1      19.133  37.071  37.135  0.00  0.00    +0.000 A 
ATOM     23  C27 UNL     1      18.369  37.445  36.019  0.00  0.00    +0.000 A 
ENDBRANCH  11  14
ENDBRANCH   9  11
ENDBRANCH   8   9
BRANCH   1  24
ATOM     24  O2  UNL     1      20.234  43.499  32.490  0.00  0.00    +0.000 OA
BRANCH  24  26
ATOM     25  O1  UNL     1      20.447  45.659  33.283  0.00  0.00    +0.000 OA
ATOM     26  C1  UNL     1      20.931  44.706  32.611  0.00  0.00    +0.000 C 
ATOM     27  N1  UNL     1      22.190  44.855  31.944  0.00  0.00    +0.000 N 
ATOM     28  H1  UNL     1      22.483  44.097  31.288  0.00  0.00    +0.000 HD
BRANCH  27  29
ATOM     29  C2  UNL     1      23.046  45.997  32.119  0.00  0.00    +0.000 A 
ATOM     30  C3  UNL     1      22.708  47.215  31.508  0.00  0.00    +0.000 A 
ATOM     31  C4  UNL     1      23.487  48.354  31.707  0.00  0.00    +0.000 A 
ATOM     32  C5  UNL     1      24.614  48.301  32.525  0.00  0.00    +0.000 A 
ATOM     33  C6  UNL     1      24.976  47.100  33.151  0.00  0.00    +0.000 A 
ATOM     34  C7  UNL     1      26.113  47.049  33.972  0.00  0.00    +0.000 A 
ATOM     35  C8  UNL     1      26.485  45.851  34.586  0.00  0.00    +0.000 A 
ATOM     36  C9  UNL     1      25.730  44.695  34.381  0.00  0.00    +0.000 A 
ATOM     37  C10 UNL     1      24.595  44.729  33.568  0.00  0.00    +0.000 A 
ATOM     38  C11 UNL     1      24.192  45.931  32.950  0.00  0.00    +0.000 A 
ENDBRANCH  27  29
ENDBRANCH  24  26
ENDBRANCH   1  24
TORSDOF 6
ENDMDL
