MODEL 1
REMARK VINA RESULT:    -8.063      0.000      0.000
REMARK INTER + INTRA:         -11.329
REMARK INTER:                 -10.420
REMARK INTRA:                  -0.909
REMARK UNBOUND:                -0.909
REMARK  Name = CNP0056360_1.pdb
REMARK  8 active torsions:
REMARK  status: ('A' for Active; 'I' for Inactive)
REMARK    1  A    between atoms: C1_1  and  C2_2
REMARK    2  A    between atoms: C2_2  and  C17_21
REMARK    3  A    between atoms: N1_3  and  C3_4
REMARK    4  A    between atoms: C3_4  and  C4_5
REMARK    5  A    between atoms: C4_5  and  C5_6
REMARK    6  A    between atoms: C4_5  and  N2_7
REMARK    7  A    between atoms: C6_8  and  C7_9
REMARK    8  A    between atoms: C6_8  and  C8_10
REMARK                            x       y       z     vdW  Elec       q    Type
REMARK                         _______ _______ _______ _____ _____    ______ ____
ROOT
ATOM      1  C4  UNL     1      63.626  53.754  73.689  0.00  0.00    +0.000 C 
ATOM      2  C5  UNL     1      64.101  55.154  73.292  0.00  0.00    +0.000 C 
ENDROOT
BRANCH   1   3
ATOM      3  N2  UNL     1      63.029  53.831  75.025  0.00  0.00    +0.000 NA
ATOM      4  C6  UNL     1      62.771  52.849  75.846  0.00  0.00    +0.000 C 
ATOM      5  C7  UNL     1      63.067  51.410  75.494  0.00  0.00    +0.000 C 
BRANCH   4   6
ATOM      6  C8  UNL     1      62.098  53.163  77.136  0.00  0.00    +0.000 A 
ATOM      7  C9  UNL     1      60.740  53.519  77.161  0.00  0.00    +0.000 A 
ATOM      8  C10 UNL     1      60.121  53.827  78.375  0.00  0.00    +0.000 A 
ATOM      9  C11 UNL     1      58.767  54.190  78.438  0.00  0.00    +0.000 A 
ATOM     10  C12 UNL     1      58.183  54.492  79.672  0.00  0.00    +0.000 A 
ATOM     11  C13 UNL     1      58.947  54.437  80.843  0.00  0.00    +0.000 A 
ATOM     12  C14 UNL     1      60.297  54.077  80.786  0.00  0.00    +0.000 A 
ATOM     13  C15 UNL     1      60.890  53.772  79.555  0.00  0.00    +0.000 A 
ATOM     14  O1  UNL     1      62.173  53.433  79.502  0.00  0.00    +0.000 OA
ATOM     15  C16 UNL     1      62.795  53.132  78.365  0.00  0.00    +0.000 A 
ATOM     16  O2  UNL     1      64.011  52.806  78.407  0.00  0.00    +0.000 OA
ENDBRANCH   4   6
ENDBRANCH   1   3
BRANCH   1  17
ATOM     17  C3  UNL     1      62.591  53.223  72.677  0.00  0.00    +0.000 C 
BRANCH  17  20
ATOM     18  C1  UNL     1      59.884  54.241  73.475  0.00  0.00    +0.000 C 
ATOM     19  C2  UNL     1      60.693  54.787  72.323  0.00  0.00    +0.000 C 
ATOM     20  N1  UNL     1      61.872  54.318  72.021  0.00  0.00    +0.000 NA
BRANCH  19  21
ATOM     21  C17 UNL     1      60.141  55.883  71.485  0.00  0.00    +0.000 A 
ATOM     22  C18 UNL     1      60.796  57.123  71.448  0.00  0.00    +0.000 A 
ATOM     23  C19 UNL     1      60.282  58.161  70.667  0.00  0.00    +0.000 A 
ATOM     24  C20 UNL     1      60.902  59.418  70.614  0.00  0.00    +0.000 A 
ATOM     25  C21 UNL     1      60.353  60.432  69.824  0.00  0.00    +0.000 A 
ATOM     26  C22 UNL     1      59.189  60.197  69.084  0.00  0.00    +0.000 A 
ATOM     27  C23 UNL     1      58.567  58.945  69.134  0.00  0.00    +0.000 A 
ATOM     28  C24 UNL     1      59.108  57.923  69.922  0.00  0.00    +0.000 A 
ATOM     29  O3  UNL     1      58.518  56.734  69.963  0.00  0.00    +0.000 OA
ATOM     30  C25 UNL     1      58.980  55.723  70.695  0.00  0.00    +0.000 A 
ATOM     31  O4  UNL     1      58.377  54.618  70.651  0.00  0.00    +0.000 OA
ENDBRANCH  19  21
ENDBRANCH  17  20
ENDBRANCH   1  17
TORSDOF 5
ENDMDL
MODEL 2
REMARK VINA RESULT:    -8.052      5.182      7.894
REMARK INTER + INTRA:         -11.315
REMARK INTER:                  -9.476
REMARK INTRA:                  -1.838
REMARK UNBOUND:                -0.909
REMARK  Name = CNP0056360_1.pdb
REMARK  8 active torsions:
REMARK  status: ('A' for Active; 'I' for Inactive)
REMARK    1  A    between atoms: C1_1  and  C2_2
REMARK    2  A    between atoms: C2_2  and  C17_21
REMARK    3  A    between atoms: N1_3  and  C3_4
REMARK    4  A    between atoms: C3_4  and  C4_5
REMARK    5  A    between atoms: C4_5  and  C5_6
REMARK    6  A    between atoms: C4_5  and  N2_7
REMARK    7  A    between atoms: C6_8  and  C7_9
REMARK    8  A    between atoms: C6_8  and  C8_10
REMARK                            x       y       z     vdW  Elec       q    Type
REMARK                         _______ _______ _______ _____ _____    ______ ____
ROOT
ATOM      1  C4  UNL     1      58.025  55.949  67.508  0.00  0.00    +0.000 C 
ATOM      2  C5  UNL     1      58.042  56.149  65.991  0.00  0.00    +0.000 C 
ENDROOT
BRANCH   1   3
ATOM      3  N2  UNL     1      59.147  55.079  67.871  0.00  0.00    +0.000 NA
ATOM      4  C6  UNL     1      59.102  53.916  68.464  0.00  0.00    +0.000 C 
ATOM      5  C7  UNL     1      57.798  53.282  68.888  0.00  0.00    +0.000 C 
BRANCH   4   6
ATOM      6  C8  UNL     1      60.386  53.239  68.792  0.00  0.00    +0.000 A 
ATOM      7  C9  UNL     1      60.717  52.951  70.126  0.00  0.00    +0.000 A 
ATOM      8  C10 UNL     1      61.931  52.328  70.425  0.00  0.00    +0.000 A 
ATOM      9  C11 UNL     1      62.297  52.028  71.746  0.00  0.00    +0.000 A 
ATOM     10  C12 UNL     1      63.522  51.405  72.005  0.00  0.00    +0.000 A 
ATOM     11  C13 UNL     1      64.384  51.084  70.951  0.00  0.00    +0.000 A 
ATOM     12  C14 UNL     1      64.026  51.383  69.633  0.00  0.00    +0.000 A 
ATOM     13  C15 UNL     1      62.801  52.005  69.363  0.00  0.00    +0.000 A 
ATOM     14  O1  UNL     1      62.463  52.290  68.111  0.00  0.00    +0.000 OA
ATOM     15  C16 UNL     1      61.315  52.881  67.789  0.00  0.00    +0.000 A 
ATOM     16  O2  UNL     1      61.066  53.101  66.574  0.00  0.00    +0.000 OA
ENDBRANCH   4   6
ENDBRANCH   1   3
BRANCH   1  17
ATOM     17  C3  UNL     1      58.145  57.301  68.237  0.00  0.00    +0.000 C 
BRANCH  17  20
ATOM     18  C1  UNL     1      58.109  57.250  71.237  0.00  0.00    +0.000 C 
ATOM     19  C2  UNL     1      59.364  57.335  70.403  0.00  0.00    +0.000 C 
ATOM     20  N1  UNL     1      59.329  57.343  69.098  0.00  0.00    +0.000 NA
BRANCH  19  21
ATOM     21  C17 UNL     1      60.690  57.428  71.067  0.00  0.00    +0.000 A 
ATOM     22  C18 UNL     1      61.294  56.267  71.573  0.00  0.00    +0.000 A 
ATOM     23  C19 UNL     1      62.537  56.345  72.203  0.00  0.00    +0.000 A 
ATOM     24  C20 UNL     1      63.166  55.208  72.732  0.00  0.00    +0.000 A 
ATOM     25  C21 UNL     1      64.409  55.328  73.360  0.00  0.00    +0.000 A 
ATOM     26  C22 UNL     1      65.028  56.579  73.462  0.00  0.00    +0.000 A 
ATOM     27  C23 UNL     1      64.405  57.715  72.937  0.00  0.00    +0.000 A 
ATOM     28  C24 UNL     1      63.161  57.606  72.306  0.00  0.00    +0.000 A 
ATOM     29  O3  UNL     1      62.573  58.686  71.804  0.00  0.00    +0.000 OA
ATOM     30  C25 UNL     1      61.390  58.648  71.196  0.00  0.00    +0.000 A 
ATOM     31  O4  UNL     1      60.920  59.715  70.719  0.00  0.00    +0.000 OA
ENDBRANCH  19  21
ENDBRANCH  17  20
ENDBRANCH   1  17
TORSDOF 5
ENDMDL
MODEL 3
REMARK VINA RESULT:    -8.052      1.981      9.448
REMARK INTER + INTRA:         -11.314
REMARK INTER:                 -10.525
REMARK INTRA:                  -0.789
REMARK UNBOUND:                -0.909
REMARK  Name = CNP0056360_1.pdb
REMARK  8 active torsions:
REMARK  status: ('A' for Active; 'I' for Inactive)
REMARK    1  A    between atoms: C1_1  and  C2_2
REMARK    2  A    between atoms: C2_2  and  C17_21
REMARK    3  A    between atoms: N1_3  and  C3_4
REMARK    4  A    between atoms: C3_4  and  C4_5
REMARK    5  A    between atoms: C4_5  and  C5_6
REMARK    6  A    between atoms: C4_5  and  N2_7
REMARK    7  A    between atoms: C6_8  and  C7_9
REMARK    8  A    between atoms: C6_8  and  C8_10
REMARK                            x       y       z     vdW  Elec       q    Type
REMARK                         _______ _______ _______ _____ _____    ______ ____
ROOT
ATOM      1  C4  UNL     1      63.858  56.410  73.137  0.00  0.00    +0.000 C 
ATOM      2  C5  UNL     1      65.220  57.052  72.861  0.00  0.00    +0.000 C 
ENDROOT
BRANCH   1   3
ATOM      3  N2  UNL     1      63.000  56.630  71.969  0.00  0.00    +0.000 NA
ATOM      4  C6  UNL     1      61.695  56.652  71.926  0.00  0.00    +0.000 C 
ATOM      5  C7  UNL     1      60.847  56.432  73.157  0.00  0.00    +0.000 C 
BRANCH   4   6
ATOM      6  C8  UNL     1      61.033  56.830  70.605  0.00  0.00    +0.000 A 
ATOM      7  C9  UNL     1      60.862  55.735  69.743  0.00  0.00    +0.000 A 
ATOM      8  C10 UNL     1      60.254  55.915  68.498  0.00  0.00    +0.000 A 
ATOM      9  C11 UNL     1      60.068  54.845  67.610  0.00  0.00    +0.000 A 
ATOM     10  C12 UNL     1      59.456  55.065  66.372  0.00  0.00    +0.000 A 
ATOM     11  C13 UNL     1      59.032  56.350  66.016  0.00  0.00    +0.000 A 
ATOM     12  C14 UNL     1      59.215  57.420  66.897  0.00  0.00    +0.000 A 
ATOM     13  C15 UNL     1      59.826  57.209  68.139  0.00  0.00    +0.000 A 
ATOM     14  O1  UNL     1      60.002  58.227  68.974  0.00  0.00    +0.000 OA
ATOM     15  C16 UNL     1      60.576  58.094  70.166  0.00  0.00    +0.000 A 
ATOM     16  O2  UNL     1      60.689  59.110  70.902  0.00  0.00    +0.000 OA
ENDBRANCH   4   6
ENDBRANCH   1   3
BRANCH   1  17
ATOM     17  C3  UNL     1      64.012  54.900  73.406  0.00  0.00    +0.000 C 
BRANCH  17  20
ATOM     18  C1  UNL     1      63.354  52.132  74.357  0.00  0.00    +0.000 C 
ATOM     19  C2  UNL     1      63.280  53.368  75.220  0.00  0.00    +0.000 C 
ATOM     20  N1  UNL     1      63.588  54.551  74.764  0.00  0.00    +0.000 NA
BRANCH  19  21
ATOM     21  C17 UNL     1      62.833  53.259  76.633  0.00  0.00    +0.000 A 
ATOM     22  C18 UNL     1      61.508  53.582  76.966  0.00  0.00    +0.000 A 
ATOM     23  C19 UNL     1      61.080  53.488  78.292  0.00  0.00    +0.000 A 
ATOM     24  C20 UNL     1      59.768  53.815  78.665  0.00  0.00    +0.000 A 
ATOM     25  C21 UNL     1      59.378  53.711  80.004  0.00  0.00    +0.000 A 
ATOM     26  C22 UNL     1      60.293  53.282  80.972  0.00  0.00    +0.000 A 
ATOM     27  C23 UNL     1      61.602  52.956  80.605  0.00  0.00    +0.000 A 
ATOM     28  C24 UNL     1      62.002  53.056  79.268  0.00  0.00    +0.000 A 
ATOM     29  O3  UNL     1      63.245  52.741  78.921  0.00  0.00    +0.000 OA
ATOM     30  C25 UNL     1      63.687  52.818  77.668  0.00  0.00    +0.000 A 
ATOM     31  O4  UNL     1      64.871  52.468  77.421  0.00  0.00    +0.000 OA
ENDBRANCH  19  21
ENDBRANCH  17  20
ENDBRANCH   1  17
TORSDOF 5
ENDMDL
MODEL 4
REMARK VINA RESULT:    -8.018      1.610      2.206
REMARK INTER + INTRA:         -11.271
REMARK INTER:                 -10.302
REMARK INTRA:                  -0.968
REMARK UNBOUND:                -0.909
REMARK  Name = CNP0056360_1.pdb
REMARK  8 active torsions:
REMARK  status: ('A' for Active; 'I' for Inactive)
REMARK    1  A    between atoms: C1_1  and  C2_2
REMARK    2  A    between atoms: C2_2  and  C17_21
REMARK    3  A    between atoms: N1_3  and  C3_4
REMARK    4  A    between atoms: C3_4  and  C4_5
REMARK    5  A    between atoms: C4_5  and  C5_6
REMARK    6  A    between atoms: C4_5  and  N2_7
REMARK    7  A    between atoms: C6_8  and  C7_9
REMARK    8  A    between atoms: C6_8  and  C8_10
REMARK                            x       y       z     vdW  Elec       q    Type
REMARK                         _______ _______ _______ _____ _____    ______ ____
ROOT
ATOM      1  C4  UNL     1      62.557  53.082  74.990  0.00  0.00    +0.000 C 
ATOM      2  C5  UNL     1      63.671  54.095  74.716  0.00  0.00    +0.000 C 
ENDROOT
BRANCH   1   3
ATOM      3  N2  UNL     1      61.833  53.506  76.191  0.00  0.00    +0.000 NA
ATOM      4  C6  UNL     1      61.483  52.776  77.217  0.00  0.00    +0.000 C 
ATOM      5  C7  UNL     1      61.795  51.300  77.295  0.00  0.00    +0.000 C 
BRANCH   4   6
ATOM      6  C8  UNL     1      60.690  53.415  78.302  0.00  0.00    +0.000 A 
ATOM      7  C9  UNL     1      59.344  53.753  78.094  0.00  0.00    +0.000 A 
ATOM      8  C10 UNL     1      58.612  54.367  79.114  0.00  0.00    +0.000 A 
ATOM      9  C11 UNL     1      57.266  54.721  78.942  0.00  0.00    +0.000 A 
ATOM     10  C12 UNL     1      56.568  55.335  79.986  0.00  0.00    +0.000 A 
ATOM     11  C13 UNL     1      57.209  55.598  81.202  0.00  0.00    +0.000 A 
ATOM     12  C14 UNL     1      58.551  55.248  81.378  0.00  0.00    +0.000 A 
ATOM     13  C15 UNL     1      59.258  54.633  80.339  0.00  0.00    +0.000 A 
ATOM     14  O1  UNL     1      60.534  54.303  80.508  0.00  0.00    +0.000 OA
ATOM     15  C16 UNL     1      61.261  53.717  79.560  0.00  0.00    +0.000 A 
ATOM     16  O2  UNL     1      62.460  53.424  79.810  0.00  0.00    +0.000 OA
ENDBRANCH   4   6
ENDBRANCH   1   3
BRANCH   1  17
ATOM     17  C3  UNL     1      61.592  52.997  73.791  0.00  0.00    +0.000 C 
BRANCH  17  20
ATOM     18  C1  UNL     1      59.144  54.724  73.962  0.00  0.00    +0.000 C 
ATOM     19  C2  UNL     1      60.383  55.079  73.176  0.00  0.00    +0.000 C 
ATOM     20  N1  UNL     1      61.428  54.299  73.141  0.00  0.00    +0.000 NA
BRANCH  19  21
ATOM     21  C17 UNL     1      60.429  56.344  72.398  0.00  0.00    +0.000 A 
ATOM     22  C18 UNL     1      59.488  56.566  71.381  0.00  0.00    +0.000 A 
ATOM     23  C19 UNL     1      59.527  57.751  70.641  0.00  0.00    +0.000 A 
ATOM     24  C20 UNL     1      58.611  58.002  69.609  0.00  0.00    +0.000 A 
ATOM     25  C21 UNL     1      58.686  59.198  68.888  0.00  0.00    +0.000 A 
ATOM     26  C22 UNL     1      59.669  60.145  69.195  0.00  0.00    +0.000 A 
ATOM     27  C23 UNL     1      60.584  59.898  70.224  0.00  0.00    +0.000 A 
ATOM     28  C24 UNL     1      60.519  58.704  70.950  0.00  0.00    +0.000 A 
ATOM     29  O3  UNL     1      61.386  58.475  71.930  0.00  0.00    +0.000 OA
ATOM     30  C25 UNL     1      61.378  57.359  72.655  0.00  0.00    +0.000 A 
ATOM     31  O4  UNL     1      62.216  57.236  73.587  0.00  0.00    +0.000 OA
ENDBRANCH  19  21
ENDBRANCH  17  20
ENDBRANCH   1  17
TORSDOF 5
ENDMDL
MODEL 5
REMARK VINA RESULT:    -7.983      3.043      4.509
REMARK INTER + INTRA:         -11.225
REMARK INTER:                  -9.594
REMARK INTRA:                  -1.631
REMARK UNBOUND:                -0.909
REMARK  Name = CNP0056360_1.pdb
REMARK  8 active torsions:
REMARK  status: ('A' for Active; 'I' for Inactive)
REMARK    1  A    between atoms: C1_1  and  C2_2
REMARK    2  A    between atoms: C2_2  and  C17_21
REMARK    3  A    between atoms: N1_3  and  C3_4
REMARK    4  A    between atoms: C3_4  and  C4_5
REMARK    5  A    between atoms: C4_5  and  C5_6
REMARK    6  A    between atoms: C4_5  and  N2_7
REMARK    7  A    between atoms: C6_8  and  C7_9
REMARK    8  A    between atoms: C6_8  and  C8_10
REMARK                            x       y       z     vdW  Elec       q    Type
REMARK                         _______ _______ _______ _____ _____    ______ ____
ROOT
ATOM      1  C4  UNL     1      63.847  56.631  72.785  0.00  0.00    +0.000 C 
ATOM      2  C5  UNL     1      64.791  56.959  73.945  0.00  0.00    +0.000 C 
ENDROOT
BRANCH   1   3
ATOM      3  N2  UNL     1      62.602  56.094  73.341  0.00  0.00    +0.000 NA
ATOM      4  C6  UNL     1      61.978  54.999  72.998  0.00  0.00    +0.000 C 
ATOM      5  C7  UNL     1      62.490  54.092  71.904  0.00  0.00    +0.000 C 
BRANCH   4   6
ATOM      6  C8  UNL     1      60.684  54.684  73.664  0.00  0.00    +0.000 A 
ATOM      7  C9  UNL     1      59.478  55.178  73.142  0.00  0.00    +0.000 A 
ATOM      8  C10 UNL     1      58.270  54.890  73.782  0.00  0.00    +0.000 A 
ATOM      9  C11 UNL     1      57.046  55.367  73.290  0.00  0.00    +0.000 A 
ATOM     10  C12 UNL     1      55.858  55.058  73.961  0.00  0.00    +0.000 A 
ATOM     11  C13 UNL     1      55.888  54.277  75.121  0.00  0.00    +0.000 A 
ATOM     12  C14 UNL     1      57.106  53.799  75.616  0.00  0.00    +0.000 A 
ATOM     13  C15 UNL     1      58.300  54.102  74.951  0.00  0.00    +0.000 A 
ATOM     14  O1  UNL     1      59.456  53.650  75.423  0.00  0.00    +0.000 OA
ATOM     15  C16 UNL     1      60.624  53.903  74.840  0.00  0.00    +0.000 A 
ATOM     16  O2  UNL     1      61.672  53.421  75.346  0.00  0.00    +0.000 OA
ENDBRANCH   4   6
ENDBRANCH   1   3
BRANCH   1  17
ATOM     17  C3  UNL     1      63.553  57.893  71.950  0.00  0.00    +0.000 C 
BRANCH  17  20
ATOM     18  C1  UNL     1      60.653  58.632  72.162  0.00  0.00    +0.000 C 
ATOM     19  C2  UNL     1      61.266  57.925  70.978  0.00  0.00    +0.000 C 
ATOM     20  N1  UNL     1      62.537  57.634  70.927  0.00  0.00    +0.000 NA
BRANCH  19  21
ATOM     21  C17 UNL     1      60.411  57.525  69.830  0.00  0.00    +0.000 A 
ATOM     22  C18 UNL     1      60.190  56.164  69.572  0.00  0.00    +0.000 A 
ATOM     23  C19 UNL     1      59.392  55.779  68.493  0.00  0.00    +0.000 A 
ATOM     24  C20 UNL     1      59.158  54.428  68.197  0.00  0.00    +0.000 A 
ATOM     25  C21 UNL     1      58.357  54.083  67.104  0.00  0.00    +0.000 A 
ATOM     26  C22 UNL     1      57.786  55.081  66.307  0.00  0.00    +0.000 A 
ATOM     27  C23 UNL     1      58.017  56.429  66.598  0.00  0.00    +0.000 A 
ATOM     28  C24 UNL     1      58.817  56.785  67.689  0.00  0.00    +0.000 A 
ATOM     29  O3  UNL     1      59.030  58.066  67.966  0.00  0.00    +0.000 OA
ATOM     30  C25 UNL     1      59.784  58.469  68.986  0.00  0.00    +0.000 A 
ATOM     31  O4  UNL     1      59.907  59.705  69.197  0.00  0.00    +0.000 OA
ENDBRANCH  19  21
ENDBRANCH  17  20
ENDBRANCH   1  17
TORSDOF 5
ENDMDL
MODEL 6
REMARK VINA RESULT:    -7.879      5.545      9.036
REMARK INTER + INTRA:         -11.091
REMARK INTER:                  -8.923
REMARK INTRA:                  -2.169
REMARK UNBOUND:                -0.909
REMARK  Name = CNP0056360_1.pdb
REMARK  8 active torsions:
REMARK  status: ('A' for Active; 'I' for Inactive)
REMARK    1  A    between atoms: C1_1  and  C2_2
REMARK    2  A    between atoms: C2_2  and  C17_21
REMARK    3  A    between atoms: N1_3  and  C3_4
REMARK    4  A    between atoms: C3_4  and  C4_5
REMARK    5  A    between atoms: C4_5  and  C5_6
REMARK    6  A    between atoms: C4_5  and  N2_7
REMARK    7  A    between atoms: C6_8  and  C7_9
REMARK    8  A    between atoms: C6_8  and  C8_10
REMARK                            x       y       z     vdW  Elec       q    Type
REMARK                         _______ _______ _______ _____ _____    ______ ____
ROOT
ATOM      1  C4  UNL     1      57.796  51.940  66.223  0.00  0.00    +0.000 C 
ATOM      2  C5  UNL     1      56.638  51.958  65.222  0.00  0.00    +0.000 C 
ENDROOT
BRANCH   1   3
ATOM      3  N2  UNL     1      58.049  53.316  66.660  0.00  0.00    +0.000 NA
ATOM      4  C6  UNL     1      59.136  54.022  66.498  0.00  0.00    +0.000 C 
ATOM      5  C7  UNL     1      60.356  53.469  65.800  0.00  0.00    +0.000 C 
BRANCH   4   6
ATOM      6  C8  UNL     1      59.187  55.388  67.088  0.00  0.00    +0.000 A 
ATOM      7  C9  UNL     1      59.956  55.638  68.236  0.00  0.00    +0.000 A 
ATOM      8  C10 UNL     1      59.985  56.919  68.791  0.00  0.00    +0.000 A 
ATOM      9  C11 UNL     1      60.740  57.205  69.939  0.00  0.00    +0.000 A 
ATOM     10  C12 UNL     1      60.743  58.501  70.466  0.00  0.00    +0.000 A 
ATOM     11  C13 UNL     1      59.993  59.511  69.852  0.00  0.00    +0.000 A 
ATOM     12  C14 UNL     1      59.238  59.231  68.709  0.00  0.00    +0.000 A 
ATOM     13  C15 UNL     1      59.230  57.937  68.174  0.00  0.00    +0.000 A 
ATOM     14  O1  UNL     1      58.511  57.672  67.089  0.00  0.00    +0.000 OA
ATOM     15  C16 UNL     1      58.460  56.465  66.533  0.00  0.00    +0.000 A 
ATOM     16  O2  UNL     1      57.764  56.304  65.495  0.00  0.00    +0.000 OA
ENDBRANCH   4   6
ENDBRANCH   1   3
BRANCH   1  17
ATOM     17  C3  UNL     1      57.454  51.053  67.436  0.00  0.00    +0.000 C 
BRANCH  17  20
ATOM     18  C1  UNL     1      54.877  52.130  68.534  0.00  0.00    +0.000 C 
ATOM     19  C2  UNL     1      56.229  52.345  69.170  0.00  0.00    +0.000 C 
ATOM     20  N1  UNL     1      57.322  51.846  68.660  0.00  0.00    +0.000 NA
BRANCH  19  21
ATOM     21  C17 UNL     1      56.344  53.159  70.408  0.00  0.00    +0.000 A 
ATOM     22  C18 UNL     1      56.773  54.492  70.323  0.00  0.00    +0.000 A 
ATOM     23  C19 UNL     1      56.889  55.263  71.482  0.00  0.00    +0.000 A 
ATOM     24  C20 UNL     1      57.327  56.595  71.437  0.00  0.00    +0.000 A 
ATOM     25  C21 UNL     1      57.434  57.333  72.620  0.00  0.00    +0.000 A 
ATOM     26  C22 UNL     1      57.104  56.747  73.847  0.00  0.00    +0.000 A 
ATOM     27  C23 UNL     1      56.667  55.419  73.896  0.00  0.00    +0.000 A 
ATOM     28  C24 UNL     1      56.557  54.672  72.718  0.00  0.00    +0.000 A 
ATOM     29  O3  UNL     1      56.138  53.413  72.767  0.00  0.00    +0.000 OA
ATOM     30  C25 UNL     1      56.015  52.650  71.684  0.00  0.00    +0.000 A 
ATOM     31  O4  UNL     1      55.578  51.476  71.817  0.00  0.00    +0.000 OA
ENDBRANCH  19  21
ENDBRANCH  17  20
ENDBRANCH   1  17
TORSDOF 5
ENDMDL
MODEL 7
REMARK VINA RESULT:    -7.830      2.554      4.038
REMARK INTER + INTRA:         -11.027
REMARK INTER:                  -9.820
REMARK INTRA:                  -1.207
REMARK UNBOUND:                -0.909
REMARK  Name = CNP0056360_1.pdb
REMARK  8 active torsions:
REMARK  status: ('A' for Active; 'I' for Inactive)
REMARK    1  A    between atoms: C1_1  and  C2_2
REMARK    2  A    between atoms: C2_2  and  C17_21
REMARK    3  A    between atoms: N1_3  and  C3_4
REMARK    4  A    between atoms: C3_4  and  C4_5
REMARK    5  A    between atoms: C4_5  and  C5_6
REMARK    6  A    between atoms: C4_5  and  N2_7
REMARK    7  A    between atoms: C6_8  and  C7_9
REMARK    8  A    between atoms: C6_8  and  C8_10
REMARK                            x       y       z     vdW  Elec       q    Type
REMARK                         _______ _______ _______ _____ _____    ______ ____
ROOT
ATOM      1  C4  UNL     1      64.218  56.806  72.717  0.00  0.00    +0.000 C 
ATOM      2  C5  UNL     1      65.589  57.253  73.231  0.00  0.00    +0.000 C 
ENDROOT
BRANCH   1   3
ATOM      3  N2  UNL     1      63.624  55.908  73.711  0.00  0.00    +0.000 NA
ATOM      4  C6  UNL     1      63.064  54.745  73.507  0.00  0.00    +0.000 C 
ATOM      5  C7  UNL     1      62.942  54.144  72.127  0.00  0.00    +0.000 C 
BRANCH   4   6
ATOM      6  C8  UNL     1      62.466  54.034  74.670  0.00  0.00    +0.000 A 
ATOM      7  C9  UNL     1      63.290  53.472  75.659  0.00  0.00    +0.000 A 
ATOM      8  C10 UNL     1      62.720  52.793  76.739  0.00  0.00    +0.000 A 
ATOM      9  C11 UNL     1      63.511  52.217  77.744  0.00  0.00    +0.000 A 
ATOM     10  C12 UNL     1      62.904  51.544  78.809  0.00  0.00    +0.000 A 
ATOM     11  C13 UNL     1      61.509  51.443  78.872  0.00  0.00    +0.000 A 
ATOM     12  C14 UNL     1      60.716  52.014  77.873  0.00  0.00    +0.000 A 
ATOM     13  C15 UNL     1      61.316  52.690  76.803  0.00  0.00    +0.000 A 
ATOM     14  O1  UNL     1      60.561  53.231  75.854  0.00  0.00    +0.000 OA
ATOM     15  C16 UNL     1      61.068  53.885  74.812  0.00  0.00    +0.000 A 
ATOM     16  O2  UNL     1      60.279  54.381  73.964  0.00  0.00    +0.000 OA
ENDBRANCH   4   6
ENDBRANCH   1   3
BRANCH   1  17
ATOM     17  C3  UNL     1      63.301  58.023  72.487  0.00  0.00    +0.000 C 
BRANCH  17  20
ATOM     18  C1  UNL     1      60.336  57.561  72.509  0.00  0.00    +0.000 C 
ATOM     19  C2  UNL     1      61.177  57.632  71.257  0.00  0.00    +0.000 C 
ATOM     20  N1  UNL     1      62.463  57.847  71.298  0.00  0.00    +0.000 NA
BRANCH  19  21
ATOM     21  C17 UNL     1      60.543  57.440  69.927  0.00  0.00    +0.000 A 
ATOM     22  C18 UNL     1      60.571  56.174  69.322  0.00  0.00    +0.000 A 
ATOM     23  C19 UNL     1      59.982  55.985  68.070  0.00  0.00    +0.000 A 
ATOM     24  C20 UNL     1      60.002  54.738  67.430  0.00  0.00    +0.000 A 
ATOM     25  C21 UNL     1      59.404  54.591  66.174  0.00  0.00    +0.000 A 
ATOM     26  C22 UNL     1      58.787  55.683  65.555  0.00  0.00    +0.000 A 
ATOM     27  C23 UNL     1      58.765  56.929  66.190  0.00  0.00    +0.000 A 
ATOM     28  C24 UNL     1      59.360  57.087  67.447  0.00  0.00    +0.000 A 
ATOM     29  O3  UNL     1      59.334  58.270  68.050  0.00  0.00    +0.000 OA
ATOM     30  C25 UNL     1      59.884  58.486  69.242  0.00  0.00    +0.000 A 
ATOM     31  O4  UNL     1      59.784  59.631  69.757  0.00  0.00    +0.000 OA
ENDBRANCH  19  21
ENDBRANCH  17  20
ENDBRANCH   1  17
TORSDOF 5
ENDMDL
MODEL 8
REMARK VINA RESULT:    -7.820      2.644      3.457
REMARK INTER + INTRA:         -11.015
REMARK INTER:                 -10.221
REMARK INTRA:                  -0.794
REMARK UNBOUND:                -0.909
REMARK  Name = CNP0056360_1.pdb
REMARK  8 active torsions:
REMARK  status: ('A' for Active; 'I' for Inactive)
REMARK    1  A    between atoms: C1_1  and  C2_2
REMARK    2  A    between atoms: C2_2  and  C17_21
REMARK    3  A    between atoms: N1_3  and  C3_4
REMARK    4  A    between atoms: C3_4  and  C4_5
REMARK    5  A    between atoms: C4_5  and  C5_6
REMARK    6  A    between atoms: C4_5  and  N2_7
REMARK    7  A    between atoms: C6_8  and  C7_9
REMARK    8  A    between atoms: C6_8  and  C8_10
REMARK                            x       y       z     vdW  Elec       q    Type
REMARK                         _______ _______ _______ _____ _____    ______ ____
ROOT
ATOM      1  C4  UNL     1      61.436  54.668  72.880  0.00  0.00    +0.000 C 
ATOM      2  C5  UNL     1      62.814  54.967  72.287  0.00  0.00    +0.000 C 
ENDROOT
BRANCH   1   3
ATOM      3  N2  UNL     1      61.591  54.454  74.322  0.00  0.00    +0.000 NA
ATOM      4  C6  UNL     1      61.461  53.336  74.985  0.00  0.00    +0.000 C 
ATOM      5  C7  UNL     1      61.103  52.036  74.304  0.00  0.00    +0.000 C 
BRANCH   4   6
ATOM      6  C8  UNL     1      61.603  53.372  76.466  0.00  0.00    +0.000 A 
ATOM      7  C9  UNL     1      60.497  53.668  77.279  0.00  0.00    +0.000 A 
ATOM      8  C10 UNL     1      60.644  53.715  78.667  0.00  0.00    +0.000 A 
ATOM      9  C11 UNL     1      59.562  54.010  79.511  0.00  0.00    +0.000 A 
ATOM     10  C12 UNL     1      59.749  54.048  80.896  0.00  0.00    +0.000 A 
ATOM     11  C13 UNL     1      61.012  53.795  81.442  0.00  0.00    +0.000 A 
ATOM     12  C14 UNL     1      62.094  53.502  80.606  0.00  0.00    +0.000 A 
ATOM     13  C15 UNL     1      61.916  53.460  79.218  0.00  0.00    +0.000 A 
ATOM     14  O1  UNL     1      62.945  53.183  78.425  0.00  0.00    +0.000 OA
ATOM     15  C16 UNL     1      62.843  53.130  77.100  0.00  0.00    +0.000 A 
ATOM     16  O2  UNL     1      63.867  52.845  76.424  0.00  0.00    +0.000 OA
ENDBRANCH   4   6
ENDBRANCH   1   3
BRANCH   1  17
ATOM     17  C3  UNL     1      60.465  55.836  72.619  0.00  0.00    +0.000 C 
BRANCH  17  20
ATOM     18  C1  UNL     1      61.146  57.934  70.584  0.00  0.00    +0.000 C 
ATOM     19  C2  UNL     1      60.261  56.742  70.313  0.00  0.00    +0.000 C 
ATOM     20  N1  UNL     1      60.002  55.849  71.229  0.00  0.00    +0.000 NA
BRANCH  19  21
ATOM     21  C17 UNL     1      59.643  56.568  68.974  0.00  0.00    +0.000 A 
ATOM     22  C18 UNL     1      60.087  55.534  68.135  0.00  0.00    +0.000 A 
ATOM     23  C19 UNL     1      59.515  55.366  66.871  0.00  0.00    +0.000 A 
ATOM     24  C20 UNL     1      59.941  54.352  66.001  0.00  0.00    +0.000 A 
ATOM     25  C21 UNL     1      59.347  54.220  64.742  0.00  0.00    +0.000 A 
ATOM     26  C22 UNL     1      58.328  55.095  64.349  0.00  0.00    +0.000 A 
ATOM     27  C23 UNL     1      57.900  56.107  65.214  0.00  0.00    +0.000 A 
ATOM     28  C24 UNL     1      58.489  56.249  66.476  0.00  0.00    +0.000 A 
ATOM     29  O3  UNL     1      58.077  57.208  67.296  0.00  0.00    +0.000 OA
ATOM     30  C25 UNL     1      58.598  57.396  68.507  0.00  0.00    +0.000 A 
ATOM     31  O4  UNL     1      58.126  58.310  69.234  0.00  0.00    +0.000 OA
ENDBRANCH  19  21
ENDBRANCH  17  20
ENDBRANCH   1  17
TORSDOF 5
ENDMDL
MODEL 9
REMARK VINA RESULT:    -7.810      1.618      8.640
REMARK INTER + INTRA:         -11.002
REMARK INTER:                  -9.764
REMARK INTRA:                  -1.238
REMARK UNBOUND:                -0.909
REMARK  Name = CNP0056360_1.pdb
REMARK  8 active torsions:
REMARK  status: ('A' for Active; 'I' for Inactive)
REMARK    1  A    between atoms: C1_1  and  C2_2
REMARK    2  A    between atoms: C2_2  and  C17_21
REMARK    3  A    between atoms: N1_3  and  C3_4
REMARK    4  A    between atoms: C3_4  and  C4_5
REMARK    5  A    between atoms: C4_5  and  C5_6
REMARK    6  A    between atoms: C4_5  and  N2_7
REMARK    7  A    between atoms: C6_8  and  C7_9
REMARK    8  A    between atoms: C6_8  and  C8_10
REMARK                            x       y       z     vdW  Elec       q    Type
REMARK                         _______ _______ _______ _____ _____    ______ ____
ROOT
ATOM      1  C4  UNL     1      61.892  51.115  72.370  0.00  0.00    +0.000 C 
ATOM      2  C5  UNL     1      60.715  50.555  73.173  0.00  0.00    +0.000 C 
ENDROOT
BRANCH   1   3
ATOM      3  N2  UNL     1      61.528  52.450  71.887  0.00  0.00    +0.000 NA
ATOM      4  C6  UNL     1      61.979  53.072  70.831  0.00  0.00    +0.000 C 
ATOM      5  C7  UNL     1      63.012  52.454  69.917  0.00  0.00    +0.000 C 
BRANCH   4   6
ATOM      6  C8  UNL     1      61.509  54.460  70.572  0.00  0.00    +0.000 A 
ATOM      7  C9  UNL     1      62.068  55.542  71.269  0.00  0.00    +0.000 A 
ATOM      8  C10 UNL     1      61.609  56.839  71.030  0.00  0.00    +0.000 A 
ATOM      9  C11 UNL     1      62.142  57.945  71.709  0.00  0.00    +0.000 A 
ATOM     10  C12 UNL     1      61.655  59.228  71.442  0.00  0.00    +0.000 A 
ATOM     11  C13 UNL     1      60.635  59.411  70.502  0.00  0.00    +0.000 A 
ATOM     12  C14 UNL     1      60.099  58.313  69.823  0.00  0.00    +0.000 A 
ATOM     13  C15 UNL     1      60.581  57.025  70.083  0.00  0.00    +0.000 A 
ATOM     14  O1  UNL     1      60.069  55.982  69.438  0.00  0.00    +0.000 OA
ATOM     15  C16 UNL     1      60.482  54.734  69.640  0.00  0.00    +0.000 A 
ATOM     16  O2  UNL     1      59.952  53.805  68.974  0.00  0.00    +0.000 OA
ENDBRANCH   4   6
ENDBRANCH   1   3
BRANCH   1  17
ATOM     17  C3  UNL     1      63.159  51.196  73.245  0.00  0.00    +0.000 C 
BRANCH  17  20
ATOM     18  C1  UNL     1      63.649  53.953  74.322  0.00  0.00    +0.000 C 
ATOM     19  C2  UNL     1      63.048  52.822  75.121  0.00  0.00    +0.000 C 
ATOM     20  N1  UNL     1      62.844  51.641  74.605  0.00  0.00    +0.000 NA
BRANCH  19  21
ATOM     21  C17 UNL     1      62.685  53.033  76.546  0.00  0.00    +0.000 A 
ATOM     22  C18 UNL     1      61.365  53.372  76.881  0.00  0.00    +0.000 A 
ATOM     23  C19 UNL     1      61.014  53.578  78.218  0.00  0.00    +0.000 A 
ATOM     24  C20 UNL     1      59.709  53.930  78.589  0.00  0.00    +0.000 A 
ATOM     25  C21 UNL     1      59.399  54.132  79.938  0.00  0.00    +0.000 A 
ATOM     26  C22 UNL     1      60.387  53.983  80.917  0.00  0.00    +0.000 A 
ATOM     27  C23 UNL     1      61.691  53.633  80.551  0.00  0.00    +0.000 A 
ATOM     28  C24 UNL     1      62.011  53.429  79.204  0.00  0.00    +0.000 A 
ATOM     29  O3  UNL     1      63.249  53.091  78.860  0.00  0.00    +0.000 OA
ATOM     30  C25 UNL     1      63.617  52.886  77.597  0.00  0.00    +0.000 A 
ATOM     31  O4  UNL     1      64.804  52.537  77.362  0.00  0.00    +0.000 OA
ENDBRANCH  19  21
ENDBRANCH  17  20
ENDBRANCH   1  17
TORSDOF 5
ENDMDL
MODEL 10
REMARK VINA RESULT:    -7.741      2.801      7.708
REMARK INTER + INTRA:         -10.913
REMARK INTER:                  -9.373
REMARK INTRA:                  -1.539
REMARK UNBOUND:                -0.909
REMARK  Name = CNP0056360_1.pdb
REMARK  8 active torsions:
REMARK  status: ('A' for Active; 'I' for Inactive)
REMARK    1  A    between atoms: C1_1  and  C2_2
REMARK    2  A    between atoms: C2_2  and  C17_21
REMARK    3  A    between atoms: N1_3  and  C3_4
REMARK    4  A    between atoms: C3_4  and  C4_5
REMARK    5  A    between atoms: C4_5  and  C5_6
REMARK    6  A    between atoms: C4_5  and  N2_7
REMARK    7  A    between atoms: C6_8  and  C7_9
REMARK    8  A    between atoms: C6_8  and  C8_10
REMARK                            x       y       z     vdW  Elec       q    Type
REMARK                         _______ _______ _______ _____ _____    ______ ____
ROOT
ATOM      1  C4  UNL     1      57.690  53.730  69.835  0.00  0.00    +0.000 C 
ATOM      2  C5  UNL     1      56.897  54.556  68.819  0.00  0.00    +0.000 C 
ENDROOT
BRANCH   1   3
ATOM      3  N2  UNL     1      58.815  54.540  70.309  0.00  0.00    +0.000 NA
ATOM      4  C6  UNL     1      60.013  54.630  69.795  0.00  0.00    +0.000 C 
ATOM      5  C7  UNL     1      60.418  53.849  68.566  0.00  0.00    +0.000 C 
BRANCH   4   6
ATOM      6  C8  UNL     1      61.021  55.474  70.491  0.00  0.00    +0.000 A 
ATOM      7  C9  UNL     1      61.954  54.893  71.364  0.00  0.00    +0.000 A 
ATOM      8  C10 UNL     1      62.887  55.695  72.025  0.00  0.00    +0.000 A 
ATOM      9  C11 UNL     1      63.833  55.150  72.906  0.00  0.00    +0.000 A 
ATOM     10  C12 UNL     1      64.749  55.987  73.550  0.00  0.00    +0.000 A 
ATOM     11  C13 UNL     1      64.723  57.367  73.320  0.00  0.00    +0.000 A 
ATOM     12  C14 UNL     1      63.782  57.916  72.443  0.00  0.00    +0.000 A 
ATOM     13  C15 UNL     1      62.861  57.086  71.794  0.00  0.00    +0.000 A 
ATOM     14  O1  UNL     1      61.967  57.609  70.963  0.00  0.00    +0.000 OA
ATOM     15  C16 UNL     1      61.065  56.876  70.316  0.00  0.00    +0.000 A 
ATOM     16  O2  UNL     1      60.262  57.452  69.535  0.00  0.00    +0.000 OA
ENDBRANCH   4   6
ENDBRANCH   1   3
BRANCH   1  17
ATOM     17  C3  UNL     1      56.795  53.320  71.020  0.00  0.00    +0.000 C 
BRANCH  17  20
ATOM     18  C1  UNL     1      56.647  55.420  73.158  0.00  0.00    +0.000 C 
ATOM     19  C2  UNL     1      57.524  54.193  73.230  0.00  0.00    +0.000 C 
ATOM     20  N1  UNL     1      57.546  53.301  72.278  0.00  0.00    +0.000 NA
BRANCH  19  21
ATOM     21  C17 UNL     1      58.408  53.983  74.405  0.00  0.00    +0.000 A 
ATOM     22  C18 UNL     1      59.787  53.803  74.211  0.00  0.00    +0.000 A 
ATOM     23  C19 UNL     1      60.625  53.600  75.309  0.00  0.00    +0.000 A 
ATOM     24  C20 UNL     1      62.005  53.404  75.153  0.00  0.00    +0.000 A 
ATOM     25  C21 UNL     1      62.811  53.199  76.278  0.00  0.00    +0.000 A 
ATOM     26  C22 UNL     1      62.245  53.190  77.557  0.00  0.00    +0.000 A 
ATOM     27  C23 UNL     1      60.869  53.385  77.717  0.00  0.00    +0.000 A 
ATOM     28  C24 UNL     1      60.054  53.591  76.598  0.00  0.00    +0.000 A 
ATOM     29  O3  UNL     1      58.749  53.780  76.753  0.00  0.00    +0.000 OA
ATOM     30  C25 UNL     1      57.921  53.978  75.730  0.00  0.00    +0.000 A 
ATOM     31  O4  UNL     1      56.701  54.182  75.970  0.00  0.00    +0.000 OA
ENDBRANCH  19  21
ENDBRANCH  17  20
ENDBRANCH   1  17
TORSDOF 5
ENDMDL
