MODEL 1
REMARK VINA RESULT:    -7.098      0.000      0.000
REMARK INTER + INTRA:          -9.187
REMARK INTER:                  -8.136
REMARK INTRA:                  -1.051
REMARK UNBOUND:                -1.051
REMARK  Name = CNP0124950_0.pdb
REMARK  5 active torsions:
REMARK  status: ('A' for Active; 'I' for Inactive)
REMARK    1  A    between atoms: C1_1  and  C2_2
REMARK    2  A    between atoms: C2_2  and  C3_4
REMARK    3  A    between atoms: C7_10  and  C8_11
REMARK    4  A    between atoms: C23_30  and  C24_31
REMARK    5  A    between atoms: C26_33  and  O7_34
REMARK                            x       y       z     vdW  Elec       q    Type
REMARK                         _______ _______ _______ _____ _____    ______ ____
ROOT
ATOM      1  C3  UNL     1      20.865  35.730  38.372  0.00  0.00    +0.000 A 
ATOM      2  C4  UNL     1      21.084  35.725  36.987  0.00  0.00    +0.000 A 
ATOM      3  O2  UNL     1      21.596  34.567  36.387  0.00  0.00    +0.000 OA
ATOM      4  C5  UNL     1      21.702  34.430  35.008  0.00  0.00    +0.000 C 
ATOM      5  O3  UNL     1      22.295  33.432  34.520  0.00  0.00    +0.000 OA
ATOM      6  C6  UNL     1      21.022  35.412  34.115  0.00  0.00    +0.000 C 
ATOM      7  C7  UNL     1      21.093  36.838  34.701  0.00  0.00    +0.000 C 
ATOM      8  C19 UNL     1      20.836  36.879  36.215  0.00  0.00    +0.000 A 
ATOM      9  C20 UNL     1      20.526  38.088  36.879  0.00  0.00    +0.000 A 
ATOM     10  O5  UNL     1      20.456  39.213  36.172  0.00  0.00    +0.000 OA
ATOM     11  C21 UNL     1      20.147  40.388  36.695  0.00  0.00    +0.000 A 
ATOM     12  O6  UNL     1      20.094  41.404  35.954  0.00  0.00    +0.000 OA
ATOM     13  C22 UNL     1      19.881  40.503  38.053  0.00  0.00    +0.000 A 
ATOM     14  C23 UNL     1      19.955  39.369  38.872  0.00  0.00    +0.000 A 
ATOM     15  C24 UNL     1      19.689  39.557  40.346  0.00  0.00    +0.000 C 
ATOM     16  C25 UNL     1      20.293  38.113  38.283  0.00  0.00    +0.000 A 
ATOM     17  C26 UNL     1      20.412  36.903  39.017  0.00  0.00    +0.000 A 
ENDROOT
BRANCH   7  18
ATOM     18  C8  UNL     1      20.134  37.719  33.910  0.00  0.00    +0.000 A 
ATOM     19  C9  UNL     1      18.739  37.455  33.944  0.00  0.00    +0.000 A 
ATOM     20  C10 UNL     1      17.854  38.276  33.232  0.00  0.00    +0.000 A 
ATOM     21  C11 UNL     1      16.456  38.112  33.213  0.00  0.00    +0.000 A 
ATOM     22  C12 UNL     1      15.659  39.007  32.461  0.00  0.00    +0.000 A 
ATOM     23  C13 UNL     1      16.255  40.058  31.731  0.00  0.00    +0.000 A 
ATOM     24  C14 UNL     1      17.645  40.190  31.774  0.00  0.00    +0.000 A 
ATOM     25  C15 UNL     1      18.397  39.324  32.501  0.00  0.00    +0.000 A 
ATOM     26  N1  UNL     1      19.706  39.573  32.448  0.00  0.00    +0.000 N 
ATOM     27  C16 UNL     1      19.953  40.737  31.598  0.00  0.00    +0.000 C 
ATOM     28  C17 UNL     1      18.542  41.186  31.118  0.00  0.00    +0.000 C 
ATOM     29  C18 UNL     1      20.607  38.805  33.124  0.00  0.00    +0.000 A 
ATOM     30  O4  UNL     1      21.837  39.067  33.048  0.00  0.00    +0.000 OA
ENDBRANCH   7  18
BRANCH   1  32
ATOM     31  C1  UNL     1      20.154  33.370  39.182  0.00  0.00    +0.000 C 
ATOM     32  C2  UNL     1      21.142  34.494  39.139  0.00  0.00    +0.000 C 
ATOM     33  O1  UNL     1      22.198  34.409  39.820  0.00  0.00    +0.000 OA
ENDBRANCH   1  32
BRANCH  17  34
ATOM     34  O7  UNL     1      20.064  36.862  40.370  0.00  0.00    +0.000 OA
ATOM     35  H19 UNL     1      20.377  37.541  41.050  0.00  0.00    +0.000 HD
ENDBRANCH  17  34
TORSDOF 3
ENDMDL
MODEL 2
REMARK VINA RESULT:    -6.904      2.818      7.714
REMARK INTER + INTRA:          -8.964
REMARK INTER:                  -8.161
REMARK INTRA:                  -0.803
REMARK UNBOUND:                -1.051
REMARK  Name = CNP0124950_0.pdb
REMARK  5 active torsions:
REMARK  status: ('A' for Active; 'I' for Inactive)
REMARK    1  A    between atoms: C1_1  and  C2_2
REMARK    2  A    between atoms: C2_2  and  C3_4
REMARK    3  A    between atoms: C7_10  and  C8_11
REMARK    4  A    between atoms: C23_30  and  C24_31
REMARK    5  A    between atoms: C26_33  and  O7_34
REMARK                            x       y       z     vdW  Elec       q    Type
REMARK                         _______ _______ _______ _____ _____    ______ ____
ROOT
ATOM      1  C3  UNL     1      15.909  39.959  32.291  0.00  0.00    +0.000 A 
ATOM      2  C4  UNL     1      16.930  40.510  33.079  0.00  0.00    +0.000 A 
ATOM      3  O2  UNL     1      16.865  41.868  33.419  0.00  0.00    +0.000 OA
ATOM      4  C5  UNL     1      17.753  42.453  34.315  0.00  0.00    +0.000 C 
ATOM      5  O3  UNL     1      17.744  43.701  34.482  0.00  0.00    +0.000 OA
ATOM      6  C6  UNL     1      18.638  41.587  35.146  0.00  0.00    +0.000 C 
ATOM      7  C7  UNL     1      19.129  40.363  34.346  0.00  0.00    +0.000 C 
ATOM      8  C19 UNL     1      18.027  39.724  33.488  0.00  0.00    +0.000 A 
ATOM      9  C20 UNL     1      18.169  38.423  32.952  0.00  0.00    +0.000 A 
ATOM     10  O5  UNL     1      19.284  37.741  33.201  0.00  0.00    +0.000 OA
ATOM     11  C21 UNL     1      19.501  36.509  32.769  0.00  0.00    +0.000 A 
ATOM     12  O6  UNL     1      20.581  35.930  33.055  0.00  0.00    +0.000 OA
ATOM     13  C22 UNL     1      18.543  35.857  32.004  0.00  0.00    +0.000 A 
ATOM     14  C23 UNL     1      17.349  36.514  31.680  0.00  0.00    +0.000 A 
ATOM     15  C24 UNL     1      16.358  35.770  30.818  0.00  0.00    +0.000 C 
ATOM     16  C25 UNL     1      17.142  37.844  32.157  0.00  0.00    +0.000 A 
ATOM     17  C26 UNL     1      15.980  38.610  31.877  0.00  0.00    +0.000 A 
ENDROOT
BRANCH   7  18
ATOM     18  C8  UNL     1      19.763  39.384  35.327  0.00  0.00    +0.000 A 
ATOM     19  C9  UNL     1      19.007  38.893  36.425  0.00  0.00    +0.000 A 
ATOM     20  C10 UNL     1      19.582  37.979  37.318  0.00  0.00    +0.000 A 
ATOM     21  C11 UNL     1      18.916  37.420  38.424  0.00  0.00    +0.000 A 
ATOM     22  C12 UNL     1      19.597  36.500  39.257  0.00  0.00    +0.000 A 
ATOM     23  C13 UNL     1      20.935  36.142  38.986  0.00  0.00    +0.000 A 
ATOM     24  C14 UNL     1      21.563  36.717  37.878  0.00  0.00    +0.000 A 
ATOM     25  C15 UNL     1      20.898  37.598  37.089  0.00  0.00    +0.000 A 
ATOM     26  N1  UNL     1      21.623  38.063  36.071  0.00  0.00    +0.000 N 
ATOM     27  C16 UNL     1      22.960  37.472  36.108  0.00  0.00    +0.000 C 
ATOM     28  C17 UNL     1      22.948  36.534  37.350  0.00  0.00    +0.000 C 
ATOM     29  C18 UNL     1      21.109  38.952  35.175  0.00  0.00    +0.000 A 
ATOM     30  O4  UNL     1      21.824  39.375  34.227  0.00  0.00    +0.000 OA
ENDBRANCH   7  18
BRANCH   1  32
ATOM     31  C1  UNL     1      15.009  42.094  31.124  0.00  0.00    +0.000 C 
ATOM     32  C2  UNL     1      14.780  40.826  31.886  0.00  0.00    +0.000 C 
ATOM     33  O1  UNL     1      13.608  40.528  32.243  0.00  0.00    +0.000 OA
ENDBRANCH   1  32
BRANCH  17  34
ATOM     34  O7  UNL     1      14.896  38.031  31.211  0.00  0.00    +0.000 OA
ATOM     35  H19 UNL     1      14.169  37.504  31.675  0.00  0.00    +0.000 HD
ENDBRANCH  17  34
TORSDOF 3
ENDMDL
MODEL 3
REMARK VINA RESULT:    -6.902      2.641      7.848
REMARK INTER + INTRA:          -8.962
REMARK INTER:                  -8.072
REMARK INTRA:                  -0.891
REMARK UNBOUND:                -1.051
REMARK  Name = CNP0124950_0.pdb
REMARK  5 active torsions:
REMARK  status: ('A' for Active; 'I' for Inactive)
REMARK    1  A    between atoms: C1_1  and  C2_2
REMARK    2  A    between atoms: C2_2  and  C3_4
REMARK    3  A    between atoms: C7_10  and  C8_11
REMARK    4  A    between atoms: C23_30  and  C24_31
REMARK    5  A    between atoms: C26_33  and  O7_34
REMARK                            x       y       z     vdW  Elec       q    Type
REMARK                         _______ _______ _______ _____ _____    ______ ____
ROOT
ATOM      1  C3  UNL     1      18.323  42.496  31.517  0.00  0.00    +0.000 A 
ATOM      2  C4  UNL     1      19.503  42.027  32.112  0.00  0.00    +0.000 A 
ATOM      3  O2  UNL     1      20.705  42.700  31.856  0.00  0.00    +0.000 OA
ATOM      4  C5  UNL     1      21.886  42.390  32.520  0.00  0.00    +0.000 C 
ATOM      5  O3  UNL     1      22.968  42.924  32.158  0.00  0.00    +0.000 OA
ATOM      6  C6  UNL     1      21.846  41.509  33.722  0.00  0.00    +0.000 C 
ATOM      7  C7  UNL     1      20.803  40.385  33.553  0.00  0.00    +0.000 C 
ATOM      8  C19 UNL     1      19.491  40.872  32.921  0.00  0.00    +0.000 A 
ATOM      9  C20 UNL     1      18.308  40.099  32.986  0.00  0.00    +0.000 A 
ATOM     10  O5  UNL     1      18.339  38.924  33.609  0.00  0.00    +0.000 OA
ATOM     11  C21 UNL     1      17.282  38.141  33.746  0.00  0.00    +0.000 A 
ATOM     12  O6  UNL     1      17.394  37.046  34.358  0.00  0.00    +0.000 OA
ATOM     13  C22 UNL     1      16.055  38.521  33.221  0.00  0.00    +0.000 A 
ATOM     14  C23 UNL     1      15.942  39.735  32.531  0.00  0.00    +0.000 A 
ATOM     15  C24 UNL     1      14.593  40.084  31.951  0.00  0.00    +0.000 C 
ATOM     16  C25 UNL     1      17.100  40.561  32.394  0.00  0.00    +0.000 A 
ATOM     17  C26 UNL     1      17.107  41.801  31.703  0.00  0.00    +0.000 A 
ENDROOT
BRANCH   7  18
ATOM     18  C8  UNL     1      20.602  39.723  34.910  0.00  0.00    +0.000 A 
ATOM     19  C9  UNL     1      20.285  40.517  36.045  0.00  0.00    +0.000 A 
ATOM     20  C10 UNL     1      20.081  39.908  37.291  0.00  0.00    +0.000 A 
ATOM     21  C11 UNL     1      19.747  40.600  38.470  0.00  0.00    +0.000 A 
ATOM     22  C12 UNL     1      19.559  39.878  39.672  0.00  0.00    +0.000 A 
ATOM     23  C13 UNL     1      19.705  38.474  39.697  0.00  0.00    +0.000 A 
ATOM     24  C14 UNL     1      20.037  37.822  38.507  0.00  0.00    +0.000 A 
ATOM     25  C15 UNL     1      20.213  38.527  37.360  0.00  0.00    +0.000 A 
ATOM     26  N1  UNL     1      20.526  37.772  36.307  0.00  0.00    +0.000 N 
ATOM     27  C16 UNL     1      20.589  36.367  36.708  0.00  0.00    +0.000 C 
ATOM     28  C17 UNL     1      20.253  36.371  38.228  0.00  0.00    +0.000 C 
ATOM     29  C18 UNL     1      20.732  38.316  35.074  0.00  0.00    +0.000 A 
ATOM     30  O4  UNL     1      21.030  37.574  34.100  0.00  0.00    +0.000 OA
ENDBRANCH   7  18
BRANCH   1  32
ATOM     31  C1  UNL     1      18.416  45.078  31.285  0.00  0.00    +0.000 C 
ATOM     32  C2  UNL     1      18.389  43.711  30.674  0.00  0.00    +0.000 C 
ATOM     33  O1  UNL     1      18.356  43.601  29.420  0.00  0.00    +0.000 OA
ENDBRANCH   1  32
BRANCH  17  34
ATOM     34  O7  UNL     1      15.914  42.349  31.223  0.00  0.00    +0.000 OA
ATOM     35  H19 UNL     1      15.127  41.794  30.915  0.00  0.00    +0.000 HD
ENDBRANCH  17  34
TORSDOF 3
ENDMDL
MODEL 4
REMARK VINA RESULT:    -6.818      2.219      4.795
REMARK INTER + INTRA:          -8.866
REMARK INTER:                  -8.378
REMARK INTRA:                  -0.488
REMARK UNBOUND:                -1.051
REMARK  Name = CNP0124950_0.pdb
REMARK  5 active torsions:
REMARK  status: ('A' for Active; 'I' for Inactive)
REMARK    1  A    between atoms: C1_1  and  C2_2
REMARK    2  A    between atoms: C2_2  and  C3_4
REMARK    3  A    between atoms: C7_10  and  C8_11
REMARK    4  A    between atoms: C23_30  and  C24_31
REMARK    5  A    between atoms: C26_33  and  O7_34
REMARK                            x       y       z     vdW  Elec       q    Type
REMARK                         _______ _______ _______ _____ _____    ______ ____
ROOT
ATOM      1  C3  UNL     1      20.194  35.393  38.241  0.00  0.00    +0.000 A 
ATOM      2  C4  UNL     1      20.003  36.781  38.297  0.00  0.00    +0.000 A 
ATOM      3  O2  UNL     1      19.946  37.406  39.550  0.00  0.00    +0.000 OA
ATOM      4  C5  UNL     1      19.908  38.789  39.688  0.00  0.00    +0.000 C 
ATOM      5  O3  UNL     1      19.716  39.301  40.823  0.00  0.00    +0.000 OA
ATOM      6  C6  UNL     1      20.198  39.656  38.510  0.00  0.00    +0.000 C 
ATOM      7  C7  UNL     1      19.616  39.049  37.217  0.00  0.00    +0.000 C 
ATOM      8  C19 UNL     1      19.828  37.531  37.116  0.00  0.00    +0.000 A 
ATOM      9  C20 UNL     1      19.678  36.844  35.889  0.00  0.00    +0.000 A 
ATOM     10  O5  UNL     1      19.346  37.533  34.800  0.00  0.00    +0.000 OA
ATOM     11  C21 UNL     1      19.209  36.987  33.603  0.00  0.00    +0.000 A 
ATOM     12  O6  UNL     1      18.901  37.711  32.621  0.00  0.00    +0.000 OA
ATOM     13  C22 UNL     1      19.404  35.624  33.428  0.00  0.00    +0.000 A 
ATOM     14  C23 UNL     1      19.735  34.823  34.529  0.00  0.00    +0.000 A 
ATOM     15  C24 UNL     1      19.903  33.343  34.287  0.00  0.00    +0.000 C 
ATOM     16  C25 UNL     1      19.875  35.437  35.811  0.00  0.00    +0.000 A 
ATOM     17  C26 UNL     1      20.191  34.724  36.997  0.00  0.00    +0.000 A 
ENDROOT
BRANCH   7  18
ATOM     18  C8  UNL     1      20.202  39.812  36.035  0.00  0.00    +0.000 A 
ATOM     19  C9  UNL     1      21.429  39.388  35.457  0.00  0.00    +0.000 A 
ATOM     20  C10 UNL     1      21.960  40.078  34.358  0.00  0.00    +0.000 A 
ATOM     21  C11 UNL     1      23.156  39.730  33.703  0.00  0.00    +0.000 A 
ATOM     22  C12 UNL     1      23.594  40.497  32.598  0.00  0.00    +0.000 A 
ATOM     23  C13 UNL     1      22.842  41.606  32.151  0.00  0.00    +0.000 A 
ATOM     24  C14 UNL     1      21.660  41.920  32.826  0.00  0.00    +0.000 A 
ATOM     25  C15 UNL     1      21.252  41.174  33.885  0.00  0.00    +0.000 A 
ATOM     26  N1  UNL     1      20.108  41.592  34.428  0.00  0.00    +0.000 N 
ATOM     27  C16 UNL     1      19.617  42.764  33.704  0.00  0.00    +0.000 C 
ATOM     28  C17 UNL     1      20.673  43.014  32.587  0.00  0.00    +0.000 C 
ATOM     29  C18 UNL     1      19.550  40.955  35.496  0.00  0.00    +0.000 A 
ATOM     30  O4  UNL     1      18.470  41.379  35.987  0.00  0.00    +0.000 OA
ENDBRANCH   7  18
BRANCH   1  32
ATOM     31  C1  UNL     1      21.598  34.829  40.349  0.00  0.00    +0.000 C 
ATOM     32  C2  UNL     1      20.371  34.649  39.509  0.00  0.00    +0.000 C 
ATOM     33  O1  UNL     1      19.507  33.802  39.859  0.00  0.00    +0.000 OA
ENDBRANCH   1  32
BRANCH  17  34
ATOM     34  O7  UNL     1      20.519  33.366  36.937  0.00  0.00    +0.000 OA
ATOM     35  H19 UNL     1      19.860  32.640  36.691  0.00  0.00    +0.000 HD
ENDBRANCH  17  34
TORSDOF 3
ENDMDL
MODEL 5
REMARK VINA RESULT:    -6.756      2.144      4.501
REMARK INTER + INTRA:          -8.795
REMARK INTER:                  -8.462
REMARK INTRA:                  -0.333
REMARK UNBOUND:                -1.051
REMARK  Name = CNP0124950_0.pdb
REMARK  5 active torsions:
REMARK  status: ('A' for Active; 'I' for Inactive)
REMARK    1  A    between atoms: C1_1  and  C2_2
REMARK    2  A    between atoms: C2_2  and  C3_4
REMARK    3  A    between atoms: C7_10  and  C8_11
REMARK    4  A    between atoms: C23_30  and  C24_31
REMARK    5  A    between atoms: C26_33  and  O7_34
REMARK                            x       y       z     vdW  Elec       q    Type
REMARK                         _______ _______ _______ _____ _____    ______ ____
ROOT
ATOM      1  C3  UNL     1      20.160  35.888  37.844  0.00  0.00    +0.000 A 
ATOM      2  C4  UNL     1      19.943  37.258  38.053  0.00  0.00    +0.000 A 
ATOM      3  O2  UNL     1      20.127  37.785  39.338  0.00  0.00    +0.000 OA
ATOM      4  C5  UNL     1      20.078  39.150  39.595  0.00  0.00    +0.000 C 
ATOM      5  O3  UNL     1      20.109  39.566  40.784  0.00  0.00    +0.000 OA
ATOM      6  C6  UNL     1      20.093  40.115  38.459  0.00  0.00    +0.000 C 
ATOM      7  C7  UNL     1      19.275  39.581  37.265  0.00  0.00    +0.000 C 
ATOM      8  C19 UNL     1      19.507  38.086  36.998  0.00  0.00    +0.000 A 
ATOM      9  C20 UNL     1      19.127  37.487  35.775  0.00  0.00    +0.000 A 
ATOM     10  O5  UNL     1      18.558  38.239  34.837  0.00  0.00    +0.000 OA
ATOM     11  C21 UNL     1      18.193  37.779  33.651  0.00  0.00    +0.000 A 
ATOM     12  O6  UNL     1      17.667  38.560  32.816  0.00  0.00    +0.000 OA
ATOM     13  C22 UNL     1      18.388  36.443  33.328  0.00  0.00    +0.000 A 
ATOM     14  C23 UNL     1      18.962  35.578  34.268  0.00  0.00    +0.000 A 
ATOM     15  C24 UNL     1      19.121  34.130  33.876  0.00  0.00    +0.000 C 
ATOM     16  C25 UNL     1      19.345  36.100  35.541  0.00  0.00    +0.000 A 
ATOM     17  C26 UNL     1      19.920  35.315  36.575  0.00  0.00    +0.000 A 
ENDROOT
BRANCH   7  18
ATOM     18  C8  UNL     1      19.582  40.456  36.056  0.00  0.00    +0.000 A 
ATOM     19  C9  UNL     1      18.611  41.381  35.586  0.00  0.00    +0.000 A 
ATOM     20  C10 UNL     1      18.899  42.200  34.486  0.00  0.00    +0.000 A 
ATOM     21  C11 UNL     1      18.016  43.158  33.955  0.00  0.00    +0.000 A 
ATOM     22  C12 UNL     1      18.417  43.934  32.841  0.00  0.00    +0.000 A 
ATOM     23  C13 UNL     1      19.691  43.752  32.262  0.00  0.00    +0.000 A 
ATOM     24  C14 UNL     1      20.541  42.792  32.817  0.00  0.00    +0.000 A 
ATOM     25  C15 UNL     1      20.143  42.056  33.886  0.00  0.00    +0.000 A 
ATOM     26  N1  UNL     1      21.057  41.180  34.306  0.00  0.00    +0.000 N 
ATOM     27  C16 UNL     1      22.251  41.274  33.468  0.00  0.00    +0.000 C 
ATOM     28  C17 UNL     1      21.923  42.384  32.428  0.00  0.00    +0.000 C 
ATOM     29  C18 UNL     1      20.826  40.363  35.373  0.00  0.00    +0.000 A 
ATOM     30  O4  UNL     1      21.710  39.545  35.741  0.00  0.00    +0.000 OA
ENDBRANCH   7  18
BRANCH   1  32
ATOM     31  C1  UNL     1      22.063  35.001  39.368  0.00  0.00    +0.000 C 
ATOM     32  C2  UNL     1      20.617  35.061  38.984  0.00  0.00    +0.000 C 
ATOM     33  O1  UNL     1      19.787  34.344  39.604  0.00  0.00    +0.000 OA
ENDBRANCH   1  32
BRANCH  17  34
ATOM     34  O7  UNL     1      20.269  33.982  36.339  0.00  0.00    +0.000 OA
ATOM     35  H19 UNL     1      19.695  33.196  36.611  0.00  0.00    +0.000 HD
ENDBRANCH  17  34
TORSDOF 3
ENDMDL
MODEL 6
REMARK VINA RESULT:    -6.707      2.353      7.493
REMARK INTER + INTRA:          -8.738
REMARK INTER:                  -7.728
REMARK INTRA:                  -1.010
REMARK UNBOUND:                -1.051
REMARK  Name = CNP0124950_0.pdb
REMARK  5 active torsions:
REMARK  status: ('A' for Active; 'I' for Inactive)
REMARK    1  A    between atoms: C1_1  and  C2_2
REMARK    2  A    between atoms: C2_2  and  C3_4
REMARK    3  A    between atoms: C7_10  and  C8_11
REMARK    4  A    between atoms: C23_30  and  C24_31
REMARK    5  A    between atoms: C26_33  and  O7_34
REMARK                            x       y       z     vdW  Elec       q    Type
REMARK                         _______ _______ _______ _____ _____    ______ ____
ROOT
ATOM      1  C3  UNL     1      19.501  41.236  31.148  0.00  0.00    +0.000 A 
ATOM      2  C4  UNL     1      20.521  40.694  31.943  0.00  0.00    +0.000 A 
ATOM      3  O2  UNL     1      21.848  41.061  31.685  0.00  0.00    +0.000 OA
ATOM      4  C5  UNL     1      22.898  40.687  32.516  0.00  0.00    +0.000 C 
ATOM      5  O3  UNL     1      24.086  40.920  32.170  0.00  0.00    +0.000 OA
ATOM      6  C6  UNL     1      22.604  40.107  33.858  0.00  0.00    +0.000 C 
ATOM      7  C7  UNL     1      21.367  39.186  33.807  0.00  0.00    +0.000 C 
ATOM      8  C19 UNL     1      20.223  39.763  32.959  0.00  0.00    +0.000 A 
ATOM      9  C20 UNL     1      18.906  39.255  33.052  0.00  0.00    +0.000 A 
ATOM     10  O5  UNL     1      18.658  38.256  33.895  0.00  0.00    +0.000 OA
ATOM     11  C21 UNL     1      17.457  37.731  34.074  0.00  0.00    +0.000 A 
ATOM     12  O6  UNL     1      17.305  36.792  34.898  0.00  0.00    +0.000 OA
ATOM     13  C22 UNL     1      16.368  38.212  33.359  0.00  0.00    +0.000 A 
ATOM     14  C23 UNL     1      16.549  39.249  32.435  0.00  0.00    +0.000 A 
ATOM     15  C24 UNL     1      15.338  39.711  31.661  0.00  0.00    +0.000 C 
ATOM     16  C25 UNL     1      17.857  39.796  32.259  0.00  0.00    +0.000 A 
ATOM     17  C26 UNL     1      18.160  40.837  31.341  0.00  0.00    +0.000 A 
ENDROOT
BRANCH   7  18
ATOM     18  C8  UNL     1      20.950  38.880  35.240  0.00  0.00    +0.000 A 
ATOM     19  C9  UNL     1      20.652  39.943  36.134  0.00  0.00    +0.000 A 
ATOM     20  C10 UNL     1      20.251  39.662  37.446  0.00  0.00    +0.000 A 
ATOM     21  C11 UNL     1      19.918  40.639  38.403  0.00  0.00    +0.000 A 
ATOM     22  C12 UNL     1      19.520  40.238  39.700  0.00  0.00    +0.000 A 
ATOM     23  C13 UNL     1      19.456  38.869  40.040  0.00  0.00    +0.000 A 
ATOM     24  C14 UNL     1      19.794  37.928  39.064  0.00  0.00    +0.000 A 
ATOM     25  C15 UNL     1      20.174  38.328  37.824  0.00  0.00    +0.000 A 
ATOM     26  N1  UNL     1      20.465  37.321  37.000  0.00  0.00    +0.000 N 
ATOM     27  C16 UNL     1      20.287  36.047  37.695  0.00  0.00    +0.000 C 
ATOM     28  C17 UNL     1      19.821  36.437  39.128  0.00  0.00    +0.000 C 
ATOM     29  C18 UNL     1      20.859  37.542  35.713  0.00  0.00    +0.000 A 
ATOM     30  O4  UNL     1      21.131  36.567  34.963  0.00  0.00    +0.000 OA
ENDBRANCH   7  18
BRANCH   1  32
ATOM     31  C1  UNL     1      20.161  43.639  30.426  0.00  0.00    +0.000 C 
ATOM     32  C2  UNL     1      19.865  42.210  30.093  0.00  0.00    +0.000 C 
ATOM     33  O1  UNL     1      19.865  41.848  28.886  0.00  0.00    +0.000 OA
ENDBRANCH   1  32
BRANCH  17  34
ATOM     34  O7  UNL     1      17.135  41.481  30.641  0.00  0.00    +0.000 OA
ATOM     35  H19 UNL     1      17.140  41.616  29.639  0.00  0.00    +0.000 HD
ENDBRANCH  17  34
TORSDOF 3
ENDMDL
MODEL 7
REMARK VINA RESULT:    -6.618      2.974      7.538
REMARK INTER + INTRA:          -8.637
REMARK INTER:                  -7.621
REMARK INTRA:                  -1.016
REMARK UNBOUND:                -1.051
REMARK  Name = CNP0124950_0.pdb
REMARK  5 active torsions:
REMARK  status: ('A' for Active; 'I' for Inactive)
REMARK    1  A    between atoms: C1_1  and  C2_2
REMARK    2  A    between atoms: C2_2  and  C3_4
REMARK    3  A    between atoms: C7_10  and  C8_11
REMARK    4  A    between atoms: C23_30  and  C24_31
REMARK    5  A    between atoms: C26_33  and  O7_34
REMARK                            x       y       z     vdW  Elec       q    Type
REMARK                         _______ _______ _______ _____ _____    ______ ____
ROOT
ATOM      1  C3  UNL     1      21.093  39.354  34.902  0.00  0.00    +0.000 A 
ATOM      2  C4  UNL     1      21.551  38.030  34.841  0.00  0.00    +0.000 A 
ATOM      3  O2  UNL     1      21.930  37.501  33.600  0.00  0.00    +0.000 OA
ATOM      4  C5  UNL     1      22.532  36.254  33.477  0.00  0.00    +0.000 C 
ATOM      5  O3  UNL     1      22.727  35.762  32.334  0.00  0.00    +0.000 OA
ATOM      6  C6  UNL     1      23.035  35.555  34.694  0.00  0.00    +0.000 C 
ATOM      7  C7  UNL     1      22.093  35.780  35.894  0.00  0.00    +0.000 C 
ATOM      8  C19 UNL     1      21.590  37.228  36.000  0.00  0.00    +0.000 A 
ATOM      9  C20 UNL     1      21.002  37.720  37.189  0.00  0.00    +0.000 A 
ATOM     10  O5  UNL     1      20.886  36.908  38.236  0.00  0.00    +0.000 OA
ATOM     11  C21 UNL     1      20.376  37.281  39.398  0.00  0.00    +0.000 A 
ATOM     12  O6  UNL     1      20.309  36.452  40.343  0.00  0.00    +0.000 OA
ATOM     13  C22 UNL     1      19.919  38.580  39.579  0.00  0.00    +0.000 A 
ATOM     14  C23 UNL     1      19.986  39.492  38.518  0.00  0.00    +0.000 A 
ATOM     15  C24 UNL     1      19.445  40.880  38.759  0.00  0.00    +0.000 C 
ATOM     16  C25 UNL     1      20.538  39.063  37.273  0.00  0.00    +0.000 A 
ATOM     17  C26 UNL     1      20.642  39.895  36.127  0.00  0.00    +0.000 A 
ENDROOT
BRANCH   7  18
ATOM     18  C8  UNL     1      22.812  35.306  37.151  0.00  0.00    +0.000 A 
ATOM     19  C9  UNL     1      24.037  35.911  37.537  0.00  0.00    +0.000 A 
ATOM     20  C10 UNL     1      24.690  35.489  38.703  0.00  0.00    +0.000 A 
ATOM     21  C11 UNL     1      25.896  36.033  39.181  0.00  0.00    +0.000 A 
ATOM     22  C12 UNL     1      26.463  35.530  40.376  0.00  0.00    +0.000 A 
ATOM     23  C13 UNL     1      25.829  34.488  41.088  0.00  0.00    +0.000 A 
ATOM     24  C14 UNL     1      24.633  33.974  40.582  0.00  0.00    +0.000 A 
ATOM     25  C15 UNL     1      24.101  34.467  39.435  0.00  0.00    +0.000 A 
ATOM     26  N1  UNL     1      22.959  33.879  39.076  0.00  0.00    +0.000 N 
ATOM     27  C16 UNL     1      22.608  32.847  40.050  0.00  0.00    +0.000 C 
ATOM     28  C17 UNL     1      23.750  32.890  41.106  0.00  0.00    +0.000 C 
ATOM     29  C18 UNL     1      22.285  34.255  37.952  0.00  0.00    +0.000 A 
ATOM     30  O4  UNL     1      21.211  33.675  37.639  0.00  0.00    +0.000 OA
ENDBRANCH   7  18
BRANCH   1  32
ATOM     31  C1  UNL     1      22.250  40.978  33.243  0.00  0.00    +0.000 C 
ATOM     32  C2  UNL     1      21.070  40.155  33.657  0.00  0.00    +0.000 C 
ATOM     33  O1  UNL     1      20.019  40.197  32.964  0.00  0.00    +0.000 OA
ENDBRANCH   1  32
BRANCH  17  34
ATOM     34  O7  UNL     1      20.318  41.252  36.209  0.00  0.00    +0.000 OA
ATOM     35  H19 UNL     1      19.542  41.675  35.718  0.00  0.00    +0.000 HD
ENDBRANCH  17  34
TORSDOF 3
ENDMDL
MODEL 8
REMARK VINA RESULT:    -6.601      2.993      8.139
REMARK INTER + INTRA:          -8.617
REMARK INTER:                  -7.619
REMARK INTRA:                  -0.998
REMARK UNBOUND:                -1.051
REMARK  Name = CNP0124950_0.pdb
REMARK  5 active torsions:
REMARK  status: ('A' for Active; 'I' for Inactive)
REMARK    1  A    between atoms: C1_1  and  C2_2
REMARK    2  A    between atoms: C2_2  and  C3_4
REMARK    3  A    between atoms: C7_10  and  C8_11
REMARK    4  A    between atoms: C23_30  and  C24_31
REMARK    5  A    between atoms: C26_33  and  O7_34
REMARK                            x       y       z     vdW  Elec       q    Type
REMARK                         _______ _______ _______ _____ _____    ______ ____
ROOT
ATOM      1  C3  UNL     1      20.290  38.191  35.620  0.00  0.00    +0.000 A 
ATOM      2  C4  UNL     1      20.375  37.854  36.978  0.00  0.00    +0.000 A 
ATOM      3  O2  UNL     1      19.807  38.716  37.926  0.00  0.00    +0.000 OA
ATOM      4  C5  UNL     1      19.718  38.383  39.273  0.00  0.00    +0.000 C 
ATOM      5  O3  UNL     1      19.330  39.243  40.107  0.00  0.00    +0.000 OA
ATOM      6  C6  UNL     1      19.983  36.981  39.705  0.00  0.00    +0.000 C 
ATOM      7  C7  UNL     1      21.132  36.355  38.887  0.00  0.00    +0.000 C 
ATOM      8  C19 UNL     1      21.055  36.690  37.390  0.00  0.00    +0.000 A 
ATOM      9  C20 UNL     1      21.796  35.959  36.431  0.00  0.00    +0.000 A 
ATOM     10  O5  UNL     1      22.573  34.961  36.840  0.00  0.00    +0.000 OA
ATOM     11  C21 UNL     1      23.282  34.202  36.020  0.00  0.00    +0.000 A 
ATOM     12  O6  UNL     1      23.988  33.271  36.488  0.00  0.00    +0.000 OA
ATOM     13  C22 UNL     1      23.250  34.429  34.651  0.00  0.00    +0.000 A 
ATOM     14  C23 UNL     1      22.471  35.476  34.140  0.00  0.00    +0.000 A 
ATOM     15  C24 UNL     1      22.499  35.699  32.648  0.00  0.00    +0.000 C 
ATOM     16  C25 UNL     1      21.718  36.281  35.047  0.00  0.00    +0.000 A 
ATOM     17  C26 UNL     1      20.908  37.376  34.644  0.00  0.00    +0.000 A 
ENDROOT
BRANCH   7  18
ATOM     18  C8  UNL     1      21.142  34.857  39.162  0.00  0.00    +0.000 A 
ATOM     19  C9  UNL     1      20.025  34.061  38.794  0.00  0.00    +0.000 A 
ATOM     20  C10 UNL     1      20.040  32.680  39.030  0.00  0.00    +0.000 A 
ATOM     21  C11 UNL     1      18.995  31.802  38.689  0.00  0.00    +0.000 A 
ATOM     22  C12 UNL     1      19.123  30.421  38.971  0.00  0.00    +0.000 A 
ATOM     23  C13 UNL     1      20.288  29.921  39.592  0.00  0.00    +0.000 A 
ATOM     24  C14 UNL     1      21.305  30.823  39.916  0.00  0.00    +0.000 A 
ATOM     25  C15 UNL     1      21.168  32.144  39.638  0.00  0.00    +0.000 A 
ATOM     26  N1  UNL     1      22.217  32.882  40.003  0.00  0.00    +0.000 N 
ATOM     27  C16 UNL     1      23.234  32.026  40.613  0.00  0.00    +0.000 C 
ATOM     28  C17 UNL     1      22.629  30.593  40.565  0.00  0.00    +0.000 C 
ATOM     29  C18 UNL     1      22.251  34.229  39.794  0.00  0.00    +0.000 A 
ATOM     30  O4  UNL     1      23.257  34.896  40.155  0.00  0.00    +0.000 OA
ENDBRANCH   7  18
BRANCH   1  32
ATOM     31  C1  UNL     1      20.141  40.779  35.516  0.00  0.00    +0.000 C 
ATOM     32  C2  UNL     1      19.566  39.425  35.238  0.00  0.00    +0.000 C 
ATOM     33  O1  UNL     1      18.417  39.339  34.729  0.00  0.00    +0.000 OA
ENDBRANCH   1  32
BRANCH  17  34
ATOM     34  O7  UNL     1      20.704  37.641  33.287  0.00  0.00    +0.000 OA
ATOM     35  H19 UNL     1      20.798  38.559  32.875  0.00  0.00    +0.000 HD
ENDBRANCH  17  34
TORSDOF 3
ENDMDL
MODEL 9
REMARK VINA RESULT:    -6.533      3.020      5.374
REMARK INTER + INTRA:          -8.539
REMARK INTER:                  -7.499
REMARK INTRA:                  -1.040
REMARK UNBOUND:                -1.051
REMARK  Name = CNP0124950_0.pdb
REMARK  5 active torsions:
REMARK  status: ('A' for Active; 'I' for Inactive)
REMARK    1  A    between atoms: C1_1  and  C2_2
REMARK    2  A    between atoms: C2_2  and  C3_4
REMARK    3  A    between atoms: C7_10  and  C8_11
REMARK    4  A    between atoms: C23_30  and  C24_31
REMARK    5  A    between atoms: C26_33  and  O7_34
REMARK                            x       y       z     vdW  Elec       q    Type
REMARK                         _______ _______ _______ _____ _____    ______ ____
ROOT
ATOM      1  C3  UNL     1      24.986  34.968  39.706  0.00  0.00    +0.000 A 
ATOM      2  C4  UNL     1      23.593  34.853  39.601  0.00  0.00    +0.000 A 
ATOM      3  O2  UNL     1      22.879  34.291  40.668  0.00  0.00    +0.000 OA
ATOM      4  C5  UNL     1      21.489  34.276  40.705  0.00  0.00    +0.000 C 
ATOM      5  O3  UNL     1      20.892  33.638  41.612  0.00  0.00    +0.000 OA
ATOM      6  C6  UNL     1      20.717  35.102  39.733  0.00  0.00    +0.000 C 
ATOM      7  C7  UNL     1      21.396  35.110  38.348  0.00  0.00    +0.000 C 
ATOM      8  C19 UNL     1      22.923  35.256  38.428  0.00  0.00    +0.000 A 
ATOM      9  C20 UNL     1      23.691  35.618  37.297  0.00  0.00    +0.000 A 
ATOM     10  O5  UNL     1      23.072  35.837  36.140  0.00  0.00    +0.000 OA
ATOM     11  C21 UNL     1      23.696  36.206  35.033  0.00  0.00    +0.000 A 
ATOM     12  O6  UNL     1      23.035  36.400  33.981  0.00  0.00    +0.000 OA
ATOM     13  C22 UNL     1      25.074  36.378  35.031  0.00  0.00    +0.000 A 
ATOM     14  C23 UNL     1      25.804  36.147  36.204  0.00  0.00    +0.000 A 
ATOM     15  C24 UNL     1      27.302  36.318  36.136  0.00  0.00    +0.000 C 
ATOM     16  C25 UNL     1      25.105  35.747  37.384  0.00  0.00    +0.000 A 
ATOM     17  C26 UNL     1      25.742  35.471  38.622  0.00  0.00    +0.000 A 
ENDROOT
BRANCH   7  18
ATOM     18  C8  UNL     1      20.737  36.197  37.508  0.00  0.00    +0.000 A 
ATOM     19  C9  UNL     1      20.844  37.558  37.901  0.00  0.00    +0.000 A 
ATOM     20  C10 UNL     1      20.254  38.561  37.119  0.00  0.00    +0.000 A 
ATOM     21  C11 UNL     1      20.317  39.936  37.410  0.00  0.00    +0.000 A 
ATOM     22  C12 UNL     1      19.687  40.861  36.544  0.00  0.00    +0.000 A 
ATOM     23  C13 UNL     1      18.997  40.415  35.396  0.00  0.00    +0.000 A 
ATOM     24  C14 UNL     1      18.957  39.042  35.140  0.00  0.00    +0.000 A 
ATOM     25  C15 UNL     1      19.567  38.166  35.979  0.00  0.00    +0.000 A 
ATOM     26  N1  UNL     1      19.445  36.891  35.608  0.00  0.00    +0.000 N 
ATOM     27  C16 UNL     1      18.668  36.810  34.372  0.00  0.00    +0.000 C 
ATOM     28  C17 UNL     1      18.317  38.286  34.024  0.00  0.00    +0.000 C 
ATOM     29  C18 UNL     1      20.002  35.880  36.333  0.00  0.00    +0.000 A 
ATOM     30  O4  UNL     1      19.864  34.686  35.955  0.00  0.00    +0.000 OA
ENDBRANCH   7  18
BRANCH   1  32
ATOM     31  C1  UNL     1      25.566  35.355  42.205  0.00  0.00    +0.000 C 
ATOM     32  C2  UNL     1      25.643  34.530  40.958  0.00  0.00    +0.000 C 
ATOM     33  O1  UNL     1      26.334  33.476  40.962  0.00  0.00    +0.000 OA
ENDBRANCH   1  32
BRANCH  17  34
ATOM     34  O7  UNL     1      27.109  35.712  38.782  0.00  0.00    +0.000 OA
ATOM     35  H19 UNL     1      27.521  36.635  38.772  0.00  0.00    +0.000 HD
ENDBRANCH  17  34
TORSDOF 3
ENDMDL
MODEL 10
REMARK VINA RESULT:    -6.220      2.657      7.610
REMARK INTER + INTRA:          -8.181
REMARK INTER:                  -7.794
REMARK INTRA:                  -0.387
REMARK UNBOUND:                -1.051
REMARK  Name = CNP0124950_0.pdb
REMARK  5 active torsions:
REMARK  status: ('A' for Active; 'I' for Inactive)
REMARK    1  A    between atoms: C1_1  and  C2_2
REMARK    2  A    between atoms: C2_2  and  C3_4
REMARK    3  A    between atoms: C7_10  and  C8_11
REMARK    4  A    between atoms: C23_30  and  C24_31
REMARK    5  A    between atoms: C26_33  and  O7_34
REMARK                            x       y       z     vdW  Elec       q    Type
REMARK                         _______ _______ _______ _____ _____    ______ ____
ROOT
ATOM      1  C3  UNL     1      18.826  41.719  31.235  0.00  0.00    +0.000 A 
ATOM      2  C4  UNL     1      19.931  41.210  31.932  0.00  0.00    +0.000 A 
ATOM      3  O2  UNL     1      21.205  41.719  31.647  0.00  0.00    +0.000 OA
ATOM      4  C5  UNL     1      22.326  41.376  32.394  0.00  0.00    +0.000 C 
ATOM      5  O3  UNL     1      23.469  41.747  32.017  0.00  0.00    +0.000 OA
ATOM      6  C6  UNL     1      22.156  40.661  33.691  0.00  0.00    +0.000 C 
ATOM      7  C7  UNL     1      21.005  39.637  33.615  0.00  0.00    +0.000 C 
ATOM      8  C19 UNL     1      19.772  40.173  32.874  0.00  0.00    +0.000 A 
ATOM      9  C20 UNL     1      18.512  39.538  32.981  0.00  0.00    +0.000 A 
ATOM     10  O5  UNL     1      18.398  38.454  33.743  0.00  0.00    +0.000 OA
ATOM     11  C21 UNL     1      17.260  37.806  33.929  0.00  0.00    +0.000 A 
ATOM     12  O6  UNL     1      17.236  36.791  34.673  0.00  0.00    +0.000 OA
ATOM     13  C22 UNL     1      16.097  38.241  33.309  0.00  0.00    +0.000 A 
ATOM     14  C23 UNL     1      16.135  39.365  32.473  0.00  0.00    +0.000 A 
ATOM     15  C24 UNL     1      14.849  39.774  31.799  0.00  0.00    +0.000 C 
ATOM     16  C25 UNL     1      17.377  40.044  32.287  0.00  0.00    +0.000 A 
ATOM     17  C26 UNL     1      17.538  41.181  31.452  0.00  0.00    +0.000 A 
ENDROOT
BRANCH   7  18
ATOM     18  C8  UNL     1      20.694  39.174  35.033  0.00  0.00    +0.000 A 
ATOM     19  C9  UNL     1      20.706  37.788  35.345  0.00  0.00    +0.000 A 
ATOM     20  C10 UNL     1      20.438  37.362  36.652  0.00  0.00    +0.000 A 
ATOM     21  C11 UNL     1      20.443  36.017  37.068  0.00  0.00    +0.000 A 
ATOM     22  C12 UNL     1      20.162  35.704  38.419  0.00  0.00    +0.000 A 
ATOM     23  C13 UNL     1      19.877  36.727  39.348  0.00  0.00    +0.000 A 
ATOM     24  C14 UNL     1      19.882  38.050  38.899  0.00  0.00    +0.000 A 
ATOM     25  C15 UNL     1      20.154  38.336  37.600  0.00  0.00    +0.000 A 
ATOM     26  N1  UNL     1      20.123  39.639  37.318  0.00  0.00    +0.000 N 
ATOM     27  C16 UNL     1      19.795  40.397  38.524  0.00  0.00    +0.000 C 
ATOM     28  C17 UNL     1      19.623  39.322  39.637  0.00  0.00    +0.000 C 
ATOM     29  C18 UNL     1      20.378  40.104  36.062  0.00  0.00    +0.000 A 
ATOM     30  O4  UNL     1      20.337  41.341  35.829  0.00  0.00    +0.000 OA
ENDBRANCH   7  18
BRANCH   1  32
ATOM     31  C1  UNL     1      19.225  44.226  30.698  0.00  0.00    +0.000 C 
ATOM     32  C2  UNL     1      19.046  42.807  30.255  0.00  0.00    +0.000 C 
ATOM     33  O1  UNL     1      19.018  42.549  29.022  0.00  0.00    +0.000 OA
ENDBRANCH   1  32
BRANCH  17  34
ATOM     34  O7  UNL     1      16.424  41.783  30.858  0.00  0.00    +0.000 OA
ATOM     35  H19 UNL     1      16.419  42.733  30.512  0.00  0.00    +0.000 HD
ENDBRANCH  17  34
TORSDOF 3
ENDMDL
