MODEL 1
REMARK VINA RESULT:    -7.399      0.000      0.000
REMARK INTER + INTRA:         -11.383
REMARK INTER:                  -9.562
REMARK INTRA:                  -1.821
REMARK UNBOUND:                -1.821
REMARK  Name = CNP0371766_3.pdb
REMARK  6 active torsions:
REMARK  status: ('A' for Active; 'I' for Inactive)
REMARK    1  A    between atoms: C1_1  and  O1_2
REMARK    2  A    between atoms: O1_2  and  C2_3
REMARK    3  A    between atoms: C9_12  and  C10_14
REMARK    4  A    between atoms: C10_14  and  N3_15
REMARK    5  A    between atoms: C19_24  and  C20_25
REMARK    6  A    between atoms: C20_25  and  N4_26
REMARK                            x       y       z     vdW  Elec       q    Type
REMARK                         _______ _______ _______ _____ _____    ______ ____
ROOT
ATOM      1  N3  UNL     1      20.729  32.276  35.866  0.00  0.00    +0.000 NA
ATOM      2  C11 UNL     1      21.032  30.913  35.335  0.00  0.00    +0.000 C 
ATOM      3  C12 UNL     1      20.877  29.773  36.364  0.00  0.00    +0.000 C 
ATOM      4  C13 UNL     1      19.677  30.001  37.237  0.00  0.00    +0.000 A 
ATOM      5  C14 UNL     1      18.811  28.951  37.577  0.00  0.00    +0.000 A 
ATOM      6  C15 UNL     1      17.708  29.194  38.399  0.00  0.00    +0.000 A 
ATOM      7  C16 UNL     1      17.478  30.478  38.895  0.00  0.00    +0.000 A 
ATOM      8  C17 UNL     1      18.350  31.523  38.577  0.00  0.00    +0.000 A 
ATOM      9  C18 UNL     1      19.457  31.293  37.740  0.00  0.00    +0.000 A 
ATOM     10  C19 UNL     1      20.469  32.354  37.332  0.00  0.00    +0.000 C 
ENDROOT
BRANCH   1  11
ATOM     11  C10 UNL     1      19.823  33.053  34.984  0.00  0.00    +0.000 C 
BRANCH  11  21
ATOM     12  C2  UNL     1      19.804  39.171  39.075  0.00  0.00    +0.000 A 
ATOM     13  C3  UNL     1      19.706  40.482  38.559  0.00  0.00    +0.000 A 
ATOM     14  C4  UNL     1      19.787  40.722  37.176  0.00  0.00    +0.000 A 
ATOM     15  C5  UNL     1      19.957  39.631  36.328  0.00  0.00    +0.000 A 
ATOM     16  N1  UNL     1      20.047  39.667  34.908  0.00  0.00    +0.000 N 
ATOM     17  C6  UNL     1      19.842  38.280  34.501  0.00  0.00    +0.000 C 
ATOM     18  C7  UNL     1      20.551  37.806  33.244  0.00  0.00    +0.000 C 
ATOM     19  C8  UNL     1      20.175  36.316  33.018  0.00  0.00    +0.000 C 
ATOM     20  N2  UNL     1      20.226  35.495  34.260  0.00  0.00    +0.000 N 
ATOM     21  C9  UNL     1      20.533  34.092  34.144  0.00  0.00    +0.000 C 
ATOM     22  O2  UNL     1      21.453  33.726  33.365  0.00  0.00    +0.000 OA
ATOM     23  C29 UNL     1      19.782  36.051  35.560  0.00  0.00    +0.000 C 
ATOM     24  C30 UNL     1      20.351  37.453  35.681  0.00  0.00    +0.000 C 
ATOM     25  C31 UNL     1      20.010  38.345  36.818  0.00  0.00    +0.000 A 
ATOM     26  C32 UNL     1      19.976  38.082  38.187  0.00  0.00    +0.000 A 
ATOM     27  H6  UNL     1      19.816  40.500  34.321  0.00  0.00    +0.000 HD
BRANCH  12  29
ATOM     28  C1  UNL     1      19.120  39.921  41.358  0.00  0.00    +0.000 C 
ATOM     29  O1  UNL     1      19.738  39.001  40.465  0.00  0.00    +0.000 OA
ENDBRANCH  12  29
ENDBRANCH  11  21
ENDBRANCH   1  11
BRANCH  10  30
ATOM     30  C20 UNL     1      20.182  33.801  37.813  0.00  0.00    +0.000 C 
BRANCH  30  31
ATOM     31  N4  UNL     1      21.294  34.339  38.604  0.00  0.00    +0.000 N 
ATOM     32  C21 UNL     1      22.552  34.796  38.094  0.00  0.00    +0.000 C 
ATOM     33  O3  UNL     1      22.777  35.053  36.880  0.00  0.00    +0.000 OA
ATOM     34  C22 UNL     1      23.534  34.871  39.170  0.00  0.00    +0.000 A 
ATOM     35  C23 UNL     1      24.865  35.286  39.164  0.00  0.00    +0.000 A 
ATOM     36  C24 UNL     1      25.579  35.231  40.374  0.00  0.00    +0.000 A 
ATOM     37  C25 UNL     1      24.957  34.759  41.553  0.00  0.00    +0.000 A 
ATOM     38  C26 UNL     1      23.615  34.341  41.531  0.00  0.00    +0.000 A 
ATOM     39  C27 UNL     1      22.927  34.418  40.320  0.00  0.00    +0.000 A 
ATOM     40  C28 UNL     1      21.556  34.059  39.984  0.00  0.00    +0.000 C 
ATOM     41  O4  UNL     1      20.731  33.520  40.770  0.00  0.00    +0.000 OA
ENDBRANCH  30  31
ENDBRANCH  10  30
TORSDOF 5
ENDMDL
MODEL 2
REMARK VINA RESULT:    -7.249      8.110     12.631
REMARK INTER + INTRA:         -11.189
REMARK INTER:                  -9.783
REMARK INTRA:                  -1.406
REMARK UNBOUND:                -1.821
REMARK  Name = CNP0371766_3.pdb
REMARK  6 active torsions:
REMARK  status: ('A' for Active; 'I' for Inactive)
REMARK    1  A    between atoms: C1_1  and  O1_2
REMARK    2  A    between atoms: O1_2  and  C2_3
REMARK    3  A    between atoms: C9_12  and  C10_14
REMARK    4  A    between atoms: C10_14  and  N3_15
REMARK    5  A    between atoms: C19_24  and  C20_25
REMARK    6  A    between atoms: C20_25  and  N4_26
REMARK                            x       y       z     vdW  Elec       q    Type
REMARK                         _______ _______ _______ _____ _____    ______ ____
ROOT
ATOM      1  N3  UNL     1      22.377  46.568  32.048  0.00  0.00    +0.000 NA
ATOM      2  C11 UNL     1      22.094  46.180  30.634  0.00  0.00    +0.000 C 
ATOM      3  C12 UNL     1      23.187  45.310  29.976  0.00  0.00    +0.000 C 
ATOM      4  C13 UNL     1      23.726  44.303  30.950  0.00  0.00    +0.000 A 
ATOM      5  C14 UNL     1      23.978  42.977  30.566  0.00  0.00    +0.000 A 
ATOM      6  C15 UNL     1      24.490  42.067  31.493  0.00  0.00    +0.000 A 
ATOM      7  C16 UNL     1      24.764  42.481  32.797  0.00  0.00    +0.000 A 
ATOM      8  C17 UNL     1      24.535  43.806  33.180  0.00  0.00    +0.000 A 
ATOM      9  C18 UNL     1      24.010  44.729  32.258  0.00  0.00    +0.000 A 
ATOM     10  C19 UNL     1      23.724  46.191  32.565  0.00  0.00    +0.000 C 
ENDROOT
BRANCH   1  11
ATOM     11  C10 UNL     1      21.224  46.337  32.954  0.00  0.00    +0.000 C 
BRANCH  11  21
ATOM     12  C2  UNL     1      19.762  39.984  36.372  0.00  0.00    +0.000 A 
ATOM     13  C3  UNL     1      19.227  38.838  35.743  0.00  0.00    +0.000 A 
ATOM     14  C4  UNL     1      18.759  38.893  34.418  0.00  0.00    +0.000 A 
ATOM     15  C5  UNL     1      18.845  40.106  33.740  0.00  0.00    +0.000 A 
ATOM     16  N1  UNL     1      18.440  40.359  32.399  0.00  0.00    +0.000 N 
ATOM     17  C6  UNL     1      19.072  41.631  32.067  0.00  0.00    +0.000 C 
ATOM     18  C7  UNL     1      18.347  42.542  31.091  0.00  0.00    +0.000 C 
ATOM     19  C8  UNL     1      19.212  43.817  30.896  0.00  0.00    +0.000 C 
ATOM     20  N2  UNL     1      19.757  44.367  32.169  0.00  0.00    +0.000 N 
ATOM     21  C9  UNL     1      20.001  45.785  32.256  0.00  0.00    +0.000 C 
ATOM     22  O2  UNL     1      19.149  46.585  31.787  0.00  0.00    +0.000 OA
ATOM     23  C29 UNL     1      20.223  43.467  33.250  0.00  0.00    +0.000 C 
ATOM     24  C30 UNL     1      19.196  42.360  33.405  0.00  0.00    +0.000 C 
ATOM     25  C31 UNL     1      19.404  41.218  34.330  0.00  0.00    +0.000 A 
ATOM     26  C32 UNL     1      19.836  41.203  35.656  0.00  0.00    +0.000 A 
ATOM     27  H6  UNL     1      18.195  39.616  31.705  0.00  0.00    +0.000 HD
BRANCH  12  29
ATOM     28  C1  UNL     1      19.775  40.727  38.757  0.00  0.00    +0.000 C 
ATOM     29  O1  UNL     1      20.191  39.869  37.701  0.00  0.00    +0.000 OA
ENDBRANCH  12  29
ENDBRANCH  11  21
ENDBRANCH   1  11
BRANCH  10  30
ATOM     30  C20 UNL     1      23.953  46.646  34.031  0.00  0.00    +0.000 C 
BRANCH  30  31
ATOM     31  N4  UNL     1      25.041  47.622  34.132  0.00  0.00    +0.000 N 
ATOM     32  C21 UNL     1      24.981  49.001  33.747  0.00  0.00    +0.000 C 
ATOM     33  O3  UNL     1      23.913  49.631  33.524  0.00  0.00    +0.000 OA
ATOM     34  C22 UNL     1      26.328  49.544  33.606  0.00  0.00    +0.000 A 
ATOM     35  C23 UNL     1      26.766  50.827  33.285  0.00  0.00    +0.000 A 
ATOM     36  C24 UNL     1      28.152  51.051  33.206  0.00  0.00    +0.000 A 
ATOM     37  C25 UNL     1      29.063  49.996  33.439  0.00  0.00    +0.000 A 
ATOM     38  C26 UNL     1      28.596  48.709  33.756  0.00  0.00    +0.000 A 
ATOM     39  C27 UNL     1      27.217  48.518  33.841  0.00  0.00    +0.000 A 
ATOM     40  C28 UNL     1      26.442  47.321  34.137  0.00  0.00    +0.000 C 
ATOM     41  O4  UNL     1      26.922  46.168  34.312  0.00  0.00    +0.000 OA
ENDBRANCH  30  31
ENDBRANCH  10  30
TORSDOF 5
ENDMDL
MODEL 3
REMARK VINA RESULT:    -7.245      3.204      8.788
REMARK INTER + INTRA:         -11.184
REMARK INTER:                  -9.811
REMARK INTRA:                  -1.373
REMARK UNBOUND:                -1.821
REMARK  Name = CNP0371766_3.pdb
REMARK  6 active torsions:
REMARK  status: ('A' for Active; 'I' for Inactive)
REMARK    1  A    between atoms: C1_1  and  O1_2
REMARK    2  A    between atoms: O1_2  and  C2_3
REMARK    3  A    between atoms: C9_12  and  C10_14
REMARK    4  A    between atoms: C10_14  and  N3_15
REMARK    5  A    between atoms: C19_24  and  C20_25
REMARK    6  A    between atoms: C20_25  and  N4_26
REMARK                            x       y       z     vdW  Elec       q    Type
REMARK                         _______ _______ _______ _____ _____    ______ ____
ROOT
ATOM      1  N3  UNL     1      20.165  38.291  34.618  0.00  0.00    +0.000 NA
ATOM      2  C11 UNL     1      21.148  39.362  34.963  0.00  0.00    +0.000 C 
ATOM      3  C12 UNL     1      20.789  40.184  36.219  0.00  0.00    +0.000 C 
ATOM      4  C13 UNL     1      20.218  39.301  37.290  0.00  0.00    +0.000 A 
ATOM      5  C14 UNL     1      20.588  39.451  38.635  0.00  0.00    +0.000 A 
ATOM      6  C15 UNL     1      20.030  38.620  39.609  0.00  0.00    +0.000 A 
ATOM      7  C16 UNL     1      19.096  37.650  39.246  0.00  0.00    +0.000 A 
ATOM      8  C17 UNL     1      18.708  37.509  37.911  0.00  0.00    +0.000 A 
ATOM      9  C18 UNL     1      19.270  38.333  36.919  0.00  0.00    +0.000 A 
ATOM     10  C19 UNL     1      18.921  38.268  35.439  0.00  0.00    +0.000 C 
ENDROOT
BRANCH   1  11
ATOM     11  C10 UNL     1      20.808  36.982  34.342  0.00  0.00    +0.000 C 
BRANCH  11  21
ATOM     12  C2  UNL     1      18.326  30.572  36.975  0.00  0.00    +0.000 A 
ATOM     13  C3  UNL     1      18.473  30.142  38.313  0.00  0.00    +0.000 A 
ATOM     14  C4  UNL     1      19.282  30.854  39.215  0.00  0.00    +0.000 A 
ATOM     15  C5  UNL     1      19.929  31.998  38.758  0.00  0.00    +0.000 A 
ATOM     16  N1  UNL     1      20.775  32.856  39.517  0.00  0.00    +0.000 N 
ATOM     17  C6  UNL     1      20.879  34.065  38.707  0.00  0.00    +0.000 C 
ATOM     18  C7  UNL     1      22.175  34.854  38.787  0.00  0.00    +0.000 C 
ATOM     19  C8  UNL     1      22.042  36.086  37.851  0.00  0.00    +0.000 C 
ATOM     20  N2  UNL     1      21.442  35.764  36.526  0.00  0.00    +0.000 N 
ATOM     21  C9  UNL     1      21.818  36.567  35.389  0.00  0.00    +0.000 C 
ATOM     22  O2  UNL     1      23.028  36.883  35.233  0.00  0.00    +0.000 OA
ATOM     23  C29 UNL     1      20.342  34.780  36.406  0.00  0.00    +0.000 C 
ATOM     24  C30 UNL     1      20.698  33.582  37.268  0.00  0.00    +0.000 C 
ATOM     25  C31 UNL     1      19.759  32.450  37.468  0.00  0.00    +0.000 A 
ATOM     26  C32 UNL     1      18.996  31.741  36.540  0.00  0.00    +0.000 A 
ATOM     27  H6  UNL     1      20.867  32.826  40.557  0.00  0.00    +0.000 HD
BRANCH  12  29
ATOM     28  C1  UNL     1      16.749  30.342  35.051  0.00  0.00    +0.000 C 
ATOM     29  O1  UNL     1      17.522  29.807  36.119  0.00  0.00    +0.000 OA
ENDBRANCH  12  29
ENDBRANCH  11  21
ENDBRANCH   1  11
BRANCH  10  30
ATOM     30  C20 UNL     1      17.940  37.144  35.011  0.00  0.00    +0.000 C 
BRANCH  30  31
ATOM     31  N4  UNL     1      17.355  37.409  33.694  0.00  0.00    +0.000 N 
ATOM     32  C21 UNL     1      16.779  38.646  33.255  0.00  0.00    +0.000 C 
ATOM     33  O3  UNL     1      16.939  39.751  33.840  0.00  0.00    +0.000 OA
ATOM     34  C22 UNL     1      15.952  38.426  32.075  0.00  0.00    +0.000 A 
ATOM     35  C23 UNL     1      15.228  39.321  31.287  0.00  0.00    +0.000 A 
ATOM     36  C24 UNL     1      14.498  38.804  30.203  0.00  0.00    +0.000 A 
ATOM     37  C25 UNL     1      14.499  37.416  29.933  0.00  0.00    +0.000 A 
ATOM     38  C26 UNL     1      15.233  36.534  30.746  0.00  0.00    +0.000 A 
ATOM     39  C27 UNL     1      15.958  37.075  31.807  0.00  0.00    +0.000 A 
ATOM     40  C28 UNL     1      16.793  36.430  32.811  0.00  0.00    +0.000 C 
ATOM     41  O4  UNL     1      16.955  35.186  32.933  0.00  0.00    +0.000 OA
ENDBRANCH  30  31
ENDBRANCH  10  30
TORSDOF 5
ENDMDL
MODEL 4
REMARK VINA RESULT:    -7.139      5.430      8.945
REMARK INTER + INTRA:         -11.047
REMARK INTER:                  -9.216
REMARK INTRA:                  -1.831
REMARK UNBOUND:                -1.821
REMARK  Name = CNP0371766_3.pdb
REMARK  6 active torsions:
REMARK  status: ('A' for Active; 'I' for Inactive)
REMARK    1  A    between atoms: C1_1  and  O1_2
REMARK    2  A    between atoms: O1_2  and  C2_3
REMARK    3  A    between atoms: C9_12  and  C10_14
REMARK    4  A    between atoms: C10_14  and  N3_15
REMARK    5  A    between atoms: C19_24  and  C20_25
REMARK    6  A    between atoms: C20_25  and  N4_26
REMARK                            x       y       z     vdW  Elec       q    Type
REMARK                         _______ _______ _______ _____ _____    ______ ____
ROOT
ATOM      1  N3  UNL     1      18.509  38.968  31.598  0.00  0.00    +0.000 NA
ATOM      2  C11 UNL     1      17.271  38.904  30.764  0.00  0.00    +0.000 C 
ATOM      3  C12 UNL     1      16.034  39.576  31.397  0.00  0.00    +0.000 C 
ATOM      4  C13 UNL     1      16.417  40.848  32.096  0.00  0.00    +0.000 A 
ATOM      5  C14 UNL     1      15.632  42.006  31.988  0.00  0.00    +0.000 A 
ATOM      6  C15 UNL     1      16.010  43.171  32.659  0.00  0.00    +0.000 A 
ATOM      7  C16 UNL     1      17.161  43.178  33.449  0.00  0.00    +0.000 A 
ATOM      8  C17 UNL     1      17.935  42.022  33.577  0.00  0.00    +0.000 A 
ATOM      9  C18 UNL     1      17.570  40.846  32.897  0.00  0.00    +0.000 A 
ATOM     10  C19 UNL     1      18.337  39.533  32.967  0.00  0.00    +0.000 C 
ENDROOT
BRANCH   1  11
ATOM     11  C10 UNL     1      19.700  39.418  30.833  0.00  0.00    +0.000 C 
BRANCH  11  21
ATOM     12  C2  UNL     1      24.383  44.674  32.980  0.00  0.00    +0.000 A 
ATOM     13  C3  UNL     1      24.107  46.059  32.948  0.00  0.00    +0.000 A 
ATOM     14  C4  UNL     1      22.949  46.550  32.319  0.00  0.00    +0.000 A 
ATOM     15  C5  UNL     1      22.078  45.633  31.736  0.00  0.00    +0.000 A 
ATOM     16  N1  UNL     1      20.856  45.930  31.069  0.00  0.00    +0.000 N 
ATOM     17  C6  UNL     1      20.171  44.645  30.988  0.00  0.00    +0.000 C 
ATOM     18  C7  UNL     1      19.267  44.406  29.791  0.00  0.00    +0.000 C 
ATOM     19  C8  UNL     1      18.653  42.986  29.932  0.00  0.00    +0.000 C 
ATOM     20  N2  UNL     1      19.641  41.949  30.342  0.00  0.00    +0.000 N 
ATOM     21  C9  UNL     1      19.427  40.589  29.915  0.00  0.00    +0.000 C 
ATOM     22  O2  UNL     1      19.057  40.367  28.732  0.00  0.00    +0.000 OA
ATOM     23  C29 UNL     1      20.708  42.258  31.322  0.00  0.00    +0.000 C 
ATOM     24  C30 UNL     1      21.295  43.610  30.956  0.00  0.00    +0.000 C 
ATOM     25  C31 UNL     1      22.317  44.279  31.799  0.00  0.00    +0.000 A 
ATOM     26  C32 UNL     1      23.478  43.767  32.378  0.00  0.00    +0.000 A 
ATOM     27  H6  UNL     1      20.378  46.860  31.095  0.00  0.00    +0.000 HD
BRANCH  12  29
ATOM     28  C1  UNL     1      25.917  44.554  34.948  0.00  0.00    +0.000 C 
ATOM     29  O1  UNL     1      25.565  44.251  33.603  0.00  0.00    +0.000 OA
ENDBRANCH  12  29
ENDBRANCH  11  21
ENDBRANCH   1  11
BRANCH  10  30
ATOM     30  C20 UNL     1      19.659  39.548  33.780  0.00  0.00    +0.000 C 
BRANCH  30  31
ATOM     31  N4  UNL     1      19.410  39.447  35.220  0.00  0.00    +0.000 N 
ATOM     32  C21 UNL     1      19.926  40.320  36.233  0.00  0.00    +0.000 C 
ATOM     33  O3  UNL     1      20.441  41.448  36.004  0.00  0.00    +0.000 OA
ATOM     34  C22 UNL     1      19.813  39.692  37.545  0.00  0.00    +0.000 A 
ATOM     35  C23 UNL     1      20.148  40.162  38.814  0.00  0.00    +0.000 A 
ATOM     36  C24 UNL     1      19.937  39.308  39.911  0.00  0.00    +0.000 A 
ATOM     37  C25 UNL     1      19.407  38.011  39.718  0.00  0.00    +0.000 A 
ATOM     38  C26 UNL     1      19.084  37.559  38.427  0.00  0.00    +0.000 A 
ATOM     39  C27 UNL     1      19.291  38.431  37.359  0.00  0.00    +0.000 A 
ATOM     40  C28 UNL     1      19.064  38.253  35.931  0.00  0.00    +0.000 C 
ATOM     41  O4  UNL     1      18.679  37.184  35.384  0.00  0.00    +0.000 OA
ENDBRANCH  30  31
ENDBRANCH  10  30
TORSDOF 5
ENDMDL
MODEL 5
REMARK VINA RESULT:    -7.124      3.780      6.432
REMARK INTER + INTRA:         -11.028
REMARK INTER:                  -9.432
REMARK INTRA:                  -1.596
REMARK UNBOUND:                -1.821
REMARK  Name = CNP0371766_3.pdb
REMARK  6 active torsions:
REMARK  status: ('A' for Active; 'I' for Inactive)
REMARK    1  A    between atoms: C1_1  and  O1_2
REMARK    2  A    between atoms: O1_2  and  C2_3
REMARK    3  A    between atoms: C9_12  and  C10_14
REMARK    4  A    between atoms: C10_14  and  N3_15
REMARK    5  A    between atoms: C19_24  and  C20_25
REMARK    6  A    between atoms: C20_25  and  N4_26
REMARK                            x       y       z     vdW  Elec       q    Type
REMARK                         _______ _______ _______ _____ _____    ______ ____
ROOT
ATOM      1  N3  UNL     1      26.963  33.495  37.696  0.00  0.00    +0.000 NA
ATOM      2  C11 UNL     1      27.144  32.012  37.742  0.00  0.00    +0.000 C 
ATOM      3  C12 UNL     1      27.246  31.421  39.165  0.00  0.00    +0.000 C 
ATOM      4  C13 UNL     1      26.284  32.102  40.096  0.00  0.00    +0.000 A 
ATOM      5  C14 UNL     1      25.531  31.373  41.029  0.00  0.00    +0.000 A 
ATOM      6  C15 UNL     1      24.653  32.038  41.888  0.00  0.00    +0.000 A 
ATOM      7  C16 UNL     1      24.536  33.427  41.828  0.00  0.00    +0.000 A 
ATOM      8  C17 UNL     1      25.300  34.160  40.915  0.00  0.00    +0.000 A 
ATOM      9  C18 UNL     1      26.179  33.501  40.037  0.00  0.00    +0.000 A 
ATOM     10  C19 UNL     1      27.057  34.198  39.007  0.00  0.00    +0.000 C 
ENDROOT
BRANCH   1  11
ATOM     11  C10 UNL     1      25.869  33.917  36.787  0.00  0.00    +0.000 C 
BRANCH  11  21
ATOM     12  C2  UNL     1      20.737  39.068  37.929  0.00  0.00    +0.000 A 
ATOM     13  C3  UNL     1      19.622  38.916  38.784  0.00  0.00    +0.000 A 
ATOM     14  C4  UNL     1      19.314  37.668  39.354  0.00  0.00    +0.000 A 
ATOM     15  C5  UNL     1      20.142  36.588  39.061  0.00  0.00    +0.000 A 
ATOM     16  N1  UNL     1      20.005  35.257  39.548  0.00  0.00    +0.000 N 
ATOM     17  C6  UNL     1      21.293  34.636  39.259  0.00  0.00    +0.000 C 
ATOM     18  C7  UNL     1      21.302  33.147  38.957  0.00  0.00    +0.000 C 
ATOM     19  C8  UNL     1      22.773  32.724  38.692  0.00  0.00    +0.000 C 
ATOM     20  N2  UNL     1      23.515  33.670  37.813  0.00  0.00    +0.000 N 
ATOM     21  C9  UNL     1      24.579  33.152  36.989  0.00  0.00    +0.000 C 
ATOM     22  O2  UNL     1      24.410  32.062  36.380  0.00  0.00    +0.000 OA
ATOM     23  C29 UNL     1      23.307  35.133  37.920  0.00  0.00    +0.000 C 
ATOM     24  C30 UNL     1      21.813  35.380  38.029  0.00  0.00    +0.000 C 
ATOM     25  C31 UNL     1      21.255  36.735  38.263  0.00  0.00    +0.000 A 
ATOM     26  C32 UNL     1      21.560  37.951  37.650  0.00  0.00    +0.000 A 
ATOM     27  H6  UNL     1      19.368  34.975  40.327  0.00  0.00    +0.000 HD
BRANCH  12  29
ATOM     28  C1  UNL     1      20.366  40.818  36.185  0.00  0.00    +0.000 C 
ATOM     29  O1  UNL     1      20.977  40.333  37.375  0.00  0.00    +0.000 OA
ENDBRANCH  12  29
ENDBRANCH  11  21
ENDBRANCH   1  11
BRANCH  10  30
ATOM     30  C20 UNL     1      26.881  35.734  38.878  0.00  0.00    +0.000 C 
BRANCH  30  31
ATOM     31  N4  UNL     1      27.983  36.461  39.514  0.00  0.00    +0.000 N 
ATOM     32  C21 UNL     1      28.024  36.917  40.873  0.00  0.00    +0.000 C 
ATOM     33  O3  UNL     1      27.242  36.523  41.779  0.00  0.00    +0.000 OA
ATOM     34  C22 UNL     1      29.063  37.929  41.033  0.00  0.00    +0.000 A 
ATOM     35  C23 UNL     1      29.490  38.628  42.161  0.00  0.00    +0.000 A 
ATOM     36  C24 UNL     1      30.521  39.571  42.001  0.00  0.00    +0.000 A 
ATOM     37  C25 UNL     1      31.092  39.800  40.729  0.00  0.00    +0.000 A 
ATOM     38  C26 UNL     1      30.639  39.087  39.606  0.00  0.00    +0.000 A 
ATOM     39  C27 UNL     1      29.625  38.148  39.795  0.00  0.00    +0.000 A 
ATOM     40  C28 UNL     1      28.953  37.274  38.843  0.00  0.00    +0.000 C 
ATOM     41  O4  UNL     1      29.145  37.270  37.597  0.00  0.00    +0.000 OA
ENDBRANCH  30  31
ENDBRANCH  10  30
TORSDOF 5
ENDMDL
MODEL 6
REMARK VINA RESULT:    -6.872      3.466      7.139
REMARK INTER + INTRA:         -10.702
REMARK INTER:                  -8.331
REMARK INTRA:                  -2.371
REMARK UNBOUND:                -1.821
REMARK  Name = CNP0371766_3.pdb
REMARK  6 active torsions:
REMARK  status: ('A' for Active; 'I' for Inactive)
REMARK    1  A    between atoms: C1_1  and  O1_2
REMARK    2  A    between atoms: O1_2  and  C2_3
REMARK    3  A    between atoms: C9_12  and  C10_14
REMARK    4  A    between atoms: C10_14  and  N3_15
REMARK    5  A    between atoms: C19_24  and  C20_25
REMARK    6  A    between atoms: C20_25  and  N4_26
REMARK                            x       y       z     vdW  Elec       q    Type
REMARK                         _______ _______ _______ _____ _____    ______ ____
ROOT
ATOM      1  N3  UNL     1      20.976  37.664  37.120  0.00  0.00    +0.000 NA
ATOM      2  C11 UNL     1      19.973  37.122  38.085  0.00  0.00    +0.000 C 
ATOM      3  C12 UNL     1      20.275  35.695  38.591  0.00  0.00    +0.000 C 
ATOM      4  C13 UNL     1      21.744  35.516  38.838  0.00  0.00    +0.000 A 
ATOM      5  C14 UNL     1      22.217  34.841  39.974  0.00  0.00    +0.000 A 
ATOM      6  C15 UNL     1      23.591  34.682  40.170  0.00  0.00    +0.000 A 
ATOM      7  C16 UNL     1      24.492  35.182  39.228  0.00  0.00    +0.000 A 
ATOM      8  C17 UNL     1      24.026  35.837  38.085  0.00  0.00    +0.000 A 
ATOM      9  C18 UNL     1      22.645  36.012  37.882  0.00  0.00    +0.000 A 
ATOM     10  C19 UNL     1      22.029  36.706  36.676  0.00  0.00    +0.000 C 
ENDROOT
BRANCH   1  11
ATOM     11  C10 UNL     1      21.422  39.038  37.459  0.00  0.00    +0.000 C 
BRANCH  11  21
ATOM     12  C2  UNL     1      16.619  36.011  32.776  0.00  0.00    +0.000 A 
ATOM     13  C3  UNL     1      15.901  36.723  31.789  0.00  0.00    +0.000 A 
ATOM     14  C4  UNL     1      15.924  38.129  31.753  0.00  0.00    +0.000 A 
ATOM     15  C5  UNL     1      16.681  38.799  32.709  0.00  0.00    +0.000 A 
ATOM     16  N1  UNL     1      16.841  40.209  32.829  0.00  0.00    +0.000 N 
ATOM     17  C6  UNL     1      17.989  40.365  33.716  0.00  0.00    +0.000 C 
ATOM     18  C7  UNL     1      18.016  41.586  34.620  0.00  0.00    +0.000 C 
ATOM     19  C8  UNL     1      19.325  41.532  35.454  0.00  0.00    +0.000 C 
ATOM     20  N2  UNL     1      19.621  40.182  36.010  0.00  0.00    +0.000 N 
ATOM     21  C9  UNL     1      20.361  40.094  37.245  0.00  0.00    +0.000 C 
ATOM     22  O2  UNL     1      20.079  40.881  38.188  0.00  0.00    +0.000 OA
ATOM     23  C29 UNL     1      19.342  38.957  35.227  0.00  0.00    +0.000 C 
ATOM     24  C30 UNL     1      17.970  39.115  34.595  0.00  0.00    +0.000 C 
ATOM     25  C31 UNL     1      17.419  38.113  33.648  0.00  0.00    +0.000 A 
ATOM     26  C32 UNL     1      17.380  36.722  33.735  0.00  0.00    +0.000 A 
ATOM     27  H6  UNL     1      16.552  40.901  32.102  0.00  0.00    +0.000 HD
BRANCH  12  29
ATOM     28  C1  UNL     1      17.627  33.743  33.057  0.00  0.00    +0.000 C 
ATOM     29  O1  UNL     1      16.537  34.612  32.771  0.00  0.00    +0.000 OA
ENDBRANCH  12  29
ENDBRANCH  11  21
ENDBRANCH   1  11
BRANCH  10  30
ATOM     30  C20 UNL     1      23.020  37.333  35.660  0.00  0.00    +0.000 C 
BRANCH  30  31
ATOM     31  N4  UNL     1      22.454  37.379  34.309  0.00  0.00    +0.000 N 
ATOM     32  C21 UNL     1      22.070  38.559  33.591  0.00  0.00    +0.000 C 
ATOM     33  O3  UNL     1      22.415  39.729  33.910  0.00  0.00    +0.000 OA
ATOM     34  C22 UNL     1      21.192  38.209  32.480  0.00  0.00    +0.000 A 
ATOM     35  C23 UNL     1      20.600  39.002  31.499  0.00  0.00    +0.000 A 
ATOM     36  C24 UNL     1      19.773  38.373  30.551  0.00  0.00    +0.000 A 
ATOM     37  C25 UNL     1      19.551  36.978  30.607  0.00  0.00    +0.000 A 
ATOM     38  C26 UNL     1      20.155  36.201  31.610  0.00  0.00    +0.000 A 
ATOM     39  C27 UNL     1      20.980  36.848  32.530  0.00  0.00    +0.000 A 
ATOM     40  C28 UNL     1      21.727  36.326  33.666  0.00  0.00    +0.000 C 
ATOM     41  O4  UNL     1      21.694  35.133  34.072  0.00  0.00    +0.000 OA
ENDBRANCH  30  31
ENDBRANCH  10  30
TORSDOF 5
ENDMDL
MODEL 7
REMARK VINA RESULT:    -6.833      2.310      6.990
REMARK INTER + INTRA:         -10.651
REMARK INTER:                  -8.875
REMARK INTRA:                  -1.776
REMARK UNBOUND:                -1.821
REMARK  Name = CNP0371766_3.pdb
REMARK  6 active torsions:
REMARK  status: ('A' for Active; 'I' for Inactive)
REMARK    1  A    between atoms: C1_1  and  O1_2
REMARK    2  A    between atoms: O1_2  and  C2_3
REMARK    3  A    between atoms: C9_12  and  C10_14
REMARK    4  A    between atoms: C10_14  and  N3_15
REMARK    5  A    between atoms: C19_24  and  C20_25
REMARK    6  A    between atoms: C20_25  and  N4_26
REMARK                            x       y       z     vdW  Elec       q    Type
REMARK                         _______ _______ _______ _____ _____    ______ ____
ROOT
ATOM      1  N3  UNL     1      19.800  34.056  35.711  0.00  0.00    +0.000 NA
ATOM      2  C11 UNL     1      18.680  33.791  34.758  0.00  0.00    +0.000 C 
ATOM      3  C12 UNL     1      18.651  34.722  33.527  0.00  0.00    +0.000 C 
ATOM      4  C13 UNL     1      20.040  34.980  33.019  0.00  0.00    +0.000 A 
ATOM      5  C14 UNL     1      20.328  34.978  31.646  0.00  0.00    +0.000 A 
ATOM      6  C15 UNL     1      21.629  35.231  31.205  0.00  0.00    +0.000 A 
ATOM      7  C16 UNL     1      22.638  35.499  32.130  0.00  0.00    +0.000 A 
ATOM      8  C17 UNL     1      22.353  35.523  33.498  0.00  0.00    +0.000 A 
ATOM      9  C18 UNL     1      21.049  35.259  33.955  0.00  0.00    +0.000 A 
ATOM     10  C19 UNL     1      20.628  35.260  35.417  0.00  0.00    +0.000 C 
ENDROOT
BRANCH   1  11
ATOM     11  C10 UNL     1      20.528  32.824  36.106  0.00  0.00    +0.000 C 
BRANCH  11  21
ATOM     12  C2  UNL     1      26.025  35.440  40.242  0.00  0.00    +0.000 A 
ATOM     13  C3  UNL     1      26.565  34.783  41.370  0.00  0.00    +0.000 A 
ATOM     14  C4  UNL     1      25.951  33.634  41.899  0.00  0.00    +0.000 A 
ATOM     15  C5  UNL     1      24.802  33.157  41.276  0.00  0.00    +0.000 A 
ATOM     16  N1  UNL     1      24.048  32.008  41.650  0.00  0.00    +0.000 N 
ATOM     17  C6  UNL     1      23.202  31.741  40.492  0.00  0.00    +0.000 C 
ATOM     18  C7  UNL     1      21.837  31.124  40.748  0.00  0.00    +0.000 C 
ATOM     19  C8  UNL     1      21.136  30.932  39.375  0.00  0.00    +0.000 C 
ATOM     20  N2  UNL     1      21.267  32.109  38.471  0.00  0.00    +0.000 N 
ATOM     21  C9  UNL     1      20.220  32.359  37.512  0.00  0.00    +0.000 C 
ATOM     22  O2  UNL     1      19.018  32.240  37.870  0.00  0.00    +0.000 OA
ATOM     23  C29 UNL     1      22.524  32.891  38.415  0.00  0.00    +0.000 C 
ATOM     24  C30 UNL     1      22.996  33.109  39.842  0.00  0.00    +0.000 C 
ATOM     25  C31 UNL     1      24.292  33.765  40.150  0.00  0.00    +0.000 A 
ATOM     26  C32 UNL     1      24.855  34.930  39.630  0.00  0.00    +0.000 A 
ATOM     27  H6  UNL     1      24.372  31.284  42.331  0.00  0.00    +0.000 HD
BRANCH  12  29
ATOM     28  C1  UNL     1      27.941  37.044  40.237  0.00  0.00    +0.000 C 
ATOM     29  O1  UNL     1      26.672  36.593  39.776  0.00  0.00    +0.000 OA
ENDBRANCH  12  29
ENDBRANCH  11  21
ENDBRANCH   1  11
BRANCH  10  30
ATOM     30  C20 UNL     1      21.755  35.482  36.460  0.00  0.00    +0.000 C 
BRANCH  30  31
ATOM     31  N4  UNL     1      21.475  36.632  37.324  0.00  0.00    +0.000 N 
ATOM     32  C21 UNL     1      20.674  36.623  38.512  0.00  0.00    +0.000 C 
ATOM     33  O3  UNL     1      20.323  35.580  39.126  0.00  0.00    +0.000 OA
ATOM     34  C22 UNL     1      20.288  37.984  38.870  0.00  0.00    +0.000 A 
ATOM     35  C23 UNL     1      19.548  38.471  39.946  0.00  0.00    +0.000 A 
ATOM     36  C24 UNL     1      19.321  39.856  40.019  0.00  0.00    +0.000 A 
ATOM     37  C25 UNL     1      19.826  40.719  39.019  0.00  0.00    +0.000 A 
ATOM     38  C26 UNL     1      20.565  40.203  37.940  0.00  0.00    +0.000 A 
ATOM     39  C27 UNL     1      20.786  38.826  37.900  0.00  0.00    +0.000 A 
ATOM     40  C28 UNL     1      21.495  38.008  36.926  0.00  0.00    +0.000 C 
ATOM     41  O4  UNL     1      22.001  38.430  35.851  0.00  0.00    +0.000 OA
ENDBRANCH  30  31
ENDBRANCH  10  30
TORSDOF 5
ENDMDL
MODEL 8
REMARK VINA RESULT:    -6.824      2.727      5.270
REMARK INTER + INTRA:         -10.640
REMARK INTER:                  -8.405
REMARK INTRA:                  -2.234
REMARK UNBOUND:                -1.821
REMARK  Name = CNP0371766_3.pdb
REMARK  6 active torsions:
REMARK  status: ('A' for Active; 'I' for Inactive)
REMARK    1  A    between atoms: C1_1  and  O1_2
REMARK    2  A    between atoms: O1_2  and  C2_3
REMARK    3  A    between atoms: C9_12  and  C10_14
REMARK    4  A    between atoms: C10_14  and  N3_15
REMARK    5  A    between atoms: C19_24  and  C20_25
REMARK    6  A    between atoms: C20_25  and  N4_26
REMARK                            x       y       z     vdW  Elec       q    Type
REMARK                         _______ _______ _______ _____ _____    ______ ____
ROOT
ATOM      1  N3  UNL     1      24.177  34.885  37.925  0.00  0.00    +0.000 NA
ATOM      2  C11 UNL     1      25.305  35.820  38.219  0.00  0.00    +0.000 C 
ATOM      3  C12 UNL     1      25.630  35.983  39.720  0.00  0.00    +0.000 C 
ATOM      4  C13 UNL     1      25.525  34.667  40.435  0.00  0.00    +0.000 A 
ATOM      5  C14 UNL     1      26.475  34.278  41.391  0.00  0.00    +0.000 A 
ATOM      6  C15 UNL     1      26.343  33.051  42.046  0.00  0.00    +0.000 A 
ATOM      7  C16 UNL     1      25.259  32.221  41.759  0.00  0.00    +0.000 A 
ATOM      8  C17 UNL     1      24.299  32.613  40.823  0.00  0.00    +0.000 A 
ATOM      9  C18 UNL     1      24.426  33.841  40.148  0.00  0.00    +0.000 A 
ATOM     10  C19 UNL     1      23.442  34.366  39.114  0.00  0.00    +0.000 C 
ENDROOT
BRANCH   1  11
ATOM     11  C10 UNL     1      24.501  33.905  36.859  0.00  0.00    +0.000 C 
BRANCH  11  21
ATOM     12  C2  UNL     1      20.861  40.299  36.683  0.00  0.00    +0.000 A 
ATOM     13  C3  UNL     1      20.345  40.898  35.512  0.00  0.00    +0.000 A 
ATOM     14  C4  UNL     1      20.657  40.385  34.241  0.00  0.00    +0.000 A 
ATOM     15  C5  UNL     1      21.480  39.265  34.168  0.00  0.00    +0.000 A 
ATOM     16  N1  UNL     1      21.896  38.594  32.983  0.00  0.00    +0.000 N 
ATOM     17  C6  UNL     1      22.410  37.314  33.458  0.00  0.00    +0.000 C 
ATOM     18  C7  UNL     1      23.541  36.675  32.669  0.00  0.00    +0.000 C 
ATOM     19  C8  UNL     1      23.905  35.333  33.360  0.00  0.00    +0.000 C 
ATOM     20  N2  UNL     1      23.991  35.432  34.844  0.00  0.00    +0.000 N 
ATOM     21  C9  UNL     1      24.885  34.542  35.542  0.00  0.00    +0.000 C 
ATOM     22  O2  UNL     1      26.035  34.332  35.071  0.00  0.00    +0.000 OA
ATOM     23  C29 UNL     1      23.045  36.278  35.607  0.00  0.00    +0.000 C 
ATOM     24  C30 UNL     1      22.912  37.600  34.872  0.00  0.00    +0.000 C 
ATOM     25  C31 UNL     1      21.953  38.648  35.305  0.00  0.00    +0.000 A 
ATOM     26  C32 UNL     1      21.695  39.161  36.576  0.00  0.00    +0.000 A 
ATOM     27  H6  UNL     1      21.486  38.757  32.036  0.00  0.00    +0.000 HD
BRANCH  12  29
ATOM     28  C1  UNL     1      20.148  40.130  39.072  0.00  0.00    +0.000 C 
ATOM     29  O1  UNL     1      20.530  40.872  37.919  0.00  0.00    +0.000 OA
ENDBRANCH  12  29
ENDBRANCH  11  21
ENDBRANCH   1  11
BRANCH  10  30
ATOM     30  C20 UNL     1      22.274  33.420  38.730  0.00  0.00    +0.000 C 
BRANCH  30  31
ATOM     31  N4  UNL     1      21.177  34.147  38.085  0.00  0.00    +0.000 N 
ATOM     32  C21 UNL     1      20.843  34.116  36.692  0.00  0.00    +0.000 C 
ATOM     33  O3  UNL     1      21.271  33.255  35.878  0.00  0.00    +0.000 OA
ATOM     34  C22 UNL     1      19.983  35.245  36.355  0.00  0.00    +0.000 A 
ATOM     35  C23 UNL     1      19.387  35.610  35.149  0.00  0.00    +0.000 A 
ATOM     36  C24 UNL     1      18.611  36.783  35.125  0.00  0.00    +0.000 A 
ATOM     37  C25 UNL     1      18.455  37.564  36.293  0.00  0.00    +0.000 A 
ATOM     38  C26 UNL     1      19.072  37.177  37.495  0.00  0.00    +0.000 A 
ATOM     39  C27 UNL     1      19.825  36.003  37.494  0.00  0.00    +0.000 A 
ATOM     40  C28 UNL     1      20.576  35.358  38.562  0.00  0.00    +0.000 C 
ATOM     41  O4  UNL     1      20.735  35.821  39.724  0.00  0.00    +0.000 OA
ENDBRANCH  30  31
ENDBRANCH  10  30
TORSDOF 5
ENDMDL
MODEL 9
REMARK VINA RESULT:    -6.794      8.373     13.565
REMARK INTER + INTRA:         -10.602
REMARK INTER:                  -9.479
REMARK INTRA:                  -1.122
REMARK UNBOUND:                -1.821
REMARK  Name = CNP0371766_3.pdb
REMARK  6 active torsions:
REMARK  status: ('A' for Active; 'I' for Inactive)
REMARK    1  A    between atoms: C1_1  and  O1_2
REMARK    2  A    between atoms: O1_2  and  C2_3
REMARK    3  A    between atoms: C9_12  and  C10_14
REMARK    4  A    between atoms: C10_14  and  N3_15
REMARK    5  A    between atoms: C19_24  and  C20_25
REMARK    6  A    between atoms: C20_25  and  N4_26
REMARK                            x       y       z     vdW  Elec       q    Type
REMARK                         _______ _______ _______ _____ _____    ______ ____
ROOT
ATOM      1  N3  UNL     1      21.850  45.961  32.352  0.00  0.00    +0.000 NA
ATOM      2  C11 UNL     1      22.392  44.755  31.656  0.00  0.00    +0.000 C 
ATOM      3  C12 UNL     1      23.930  44.630  31.691  0.00  0.00    +0.000 C 
ATOM      4  C13 UNL     1      24.470  45.044  33.029  0.00  0.00    +0.000 A 
ATOM      5  C14 UNL     1      25.489  44.317  33.662  0.00  0.00    +0.000 A 
ATOM      6  C15 UNL     1      25.977  44.735  34.903  0.00  0.00    +0.000 A 
ATOM      7  C16 UNL     1      25.460  45.883  35.504  0.00  0.00    +0.000 A 
ATOM      8  C17 UNL     1      24.460  46.623  34.867  0.00  0.00    +0.000 A 
ATOM      9  C18 UNL     1      23.953  46.206  33.623  0.00  0.00    +0.000 A 
ATOM     10  C19 UNL     1      22.868  46.934  32.843  0.00  0.00    +0.000 C 
ENDROOT
BRANCH   1  11
ATOM     11  C10 UNL     1      20.729  45.645  33.272  0.00  0.00    +0.000 C 
BRANCH  11  21
ATOM     12  C2  UNL     1      19.826  39.743  37.575  0.00  0.00    +0.000 A 
ATOM     13  C3  UNL     1      19.460  38.460  37.112  0.00  0.00    +0.000 A 
ATOM     14  C4  UNL     1      19.060  38.260  35.779  0.00  0.00    +0.000 A 
ATOM     15  C5  UNL     1      19.041  39.359  34.926  0.00  0.00    +0.000 A 
ATOM     16  N1  UNL     1      18.681  39.358  33.548  0.00  0.00    +0.000 N 
ATOM     17  C6  UNL     1      19.180  40.634  33.047  0.00  0.00    +0.000 C 
ATOM     18  C7  UNL     1      18.407  41.295  31.918  0.00  0.00    +0.000 C 
ATOM     19  C8  UNL     1      19.130  42.622  31.558  0.00  0.00    +0.000 C 
ATOM     20  N2  UNL     1      19.540  43.417  32.749  0.00  0.00    +0.000 N 
ATOM     21  C9  UNL     1      19.616  44.851  32.625  0.00  0.00    +0.000 C 
ATOM     22  O2  UNL     1      18.703  45.464  32.009  0.00  0.00    +0.000 OA
ATOM     23  C29 UNL     1      20.049  42.752  33.971  0.00  0.00    +0.000 C 
ATOM     24  C30 UNL     1      19.149  41.564  34.259  0.00  0.00    +0.000 C 
ATOM     25  C31 UNL     1      19.437  40.606  35.356  0.00  0.00    +0.000 A 
ATOM     26  C32 UNL     1      19.798  40.842  36.683  0.00  0.00    +0.000 A 
ATOM     27  H6  UNL     1      18.559  38.497  32.970  0.00  0.00    +0.000 HD
BRANCH  12  29
ATOM     28  C1  UNL     1      19.659  39.101  39.984  0.00  0.00    +0.000 C 
ATOM     29  O1  UNL     1      20.196  39.880  38.920  0.00  0.00    +0.000 OA
ENDBRANCH  12  29
ENDBRANCH  11  21
ENDBRANCH   1  11
BRANCH  10  30
ATOM     30  C20 UNL     1      22.232  48.169  33.535  0.00  0.00    +0.000 C 
BRANCH  30  31
ATOM     31  N4  UNL     1      22.598  49.417  32.859  0.00  0.00    +0.000 N 
ATOM     32  C21 UNL     1      23.664  50.301  33.231  0.00  0.00    +0.000 C 
ATOM     33  O3  UNL     1      24.599  49.995  34.019  0.00  0.00    +0.000 OA
ATOM     34  C22 UNL     1      23.476  51.606  32.607  0.00  0.00    +0.000 A 
ATOM     35  C23 UNL     1      24.260  52.758  32.648  0.00  0.00    +0.000 A 
ATOM     36  C24 UNL     1      23.807  53.890  31.947  0.00  0.00    +0.000 A 
ATOM     37  C25 UNL     1      22.588  53.849  31.231  0.00  0.00    +0.000 A 
ATOM     38  C26 UNL     1      21.813  52.676  31.211  0.00  0.00    +0.000 A 
ATOM     39  C27 UNL     1      22.292  51.565  31.904  0.00  0.00    +0.000 A 
ATOM     40  C28 UNL     1      21.724  50.235  32.072  0.00  0.00    +0.000 C 
ATOM     41  O4  UNL     1      20.597  49.866  31.645  0.00  0.00    +0.000 OA
ENDBRANCH  30  31
ENDBRANCH  10  30
TORSDOF 5
ENDMDL
MODEL 10
REMARK VINA RESULT:    -6.632      2.724      5.720
REMARK INTER + INTRA:         -10.391
REMARK INTER:                  -9.001
REMARK INTRA:                  -1.390
REMARK UNBOUND:                -1.821
REMARK  Name = CNP0371766_3.pdb
REMARK  6 active torsions:
REMARK  status: ('A' for Active; 'I' for Inactive)
REMARK    1  A    between atoms: C1_1  and  O1_2
REMARK    2  A    between atoms: O1_2  and  C2_3
REMARK    3  A    between atoms: C9_12  and  C10_14
REMARK    4  A    between atoms: C10_14  and  N3_15
REMARK    5  A    between atoms: C19_24  and  C20_25
REMARK    6  A    between atoms: C20_25  and  N4_26
REMARK                            x       y       z     vdW  Elec       q    Type
REMARK                         _______ _______ _______ _____ _____    ______ ____
ROOT
ATOM      1  N3  UNL     1      21.150  37.142  38.617  0.00  0.00    +0.000 NA
ATOM      2  C11 UNL     1      22.122  37.910  37.783  0.00  0.00    +0.000 C 
ATOM      3  C12 UNL     1      22.780  37.096  36.648  0.00  0.00    +0.000 C 
ATOM      4  C13 UNL     1      21.783  36.176  36.004  0.00  0.00    +0.000 A 
ATOM      5  C14 UNL     1      21.732  36.013  34.611  0.00  0.00    +0.000 A 
ATOM      6  C15 UNL     1      20.799  35.142  34.044  0.00  0.00    +0.000 A 
ATOM      7  C16 UNL     1      19.928  34.424  34.864  0.00  0.00    +0.000 A 
ATOM      8  C17 UNL     1      19.988  34.567  36.253  0.00  0.00    +0.000 A 
ATOM      9  C18 UNL     1      20.915  35.449  36.835  0.00  0.00    +0.000 A 
ATOM     10  C19 UNL     1      21.068  35.681  38.332  0.00  0.00    +0.000 C 
ENDROOT
BRANCH   1  11
ATOM     11  C10 UNL     1      19.866  37.858  38.817  0.00  0.00    +0.000 C 
BRANCH  11  21
ATOM     12  C2  UNL     1      16.199  36.541  32.573  0.00  0.00    +0.000 A 
ATOM     13  C3  UNL     1      16.442  37.196  31.345  0.00  0.00    +0.000 A 
ATOM     14  C4  UNL     1      17.306  38.303  31.276  0.00  0.00    +0.000 A 
ATOM     15  C5  UNL     1      17.923  38.730  32.448  0.00  0.00    +0.000 A 
ATOM     16  N1  UNL     1      18.836  39.815  32.580  0.00  0.00    +0.000 N 
ATOM     17  C6  UNL     1      19.455  39.606  33.884  0.00  0.00    +0.000 C 
ATOM     18  C7  UNL     1      19.887  40.838  34.662  0.00  0.00    +0.000 C 
ATOM     19  C8  UNL     1      20.518  40.361  35.999  0.00  0.00    +0.000 C 
ATOM     20  N2  UNL     1      19.738  39.286  36.673  0.00  0.00    +0.000 N 
ATOM     21  C9  UNL     1      19.796  39.193  38.111  0.00  0.00    +0.000 C 
ATOM     22  O2  UNL     1      19.732  40.248  38.797  0.00  0.00    +0.000 OA
ATOM     23  C29 UNL     1      19.078  38.216  35.889  0.00  0.00    +0.000 C 
ATOM     24  C30 UNL     1      18.395  38.869  34.701  0.00  0.00    +0.000 C 
ATOM     25  C31 UNL     1      17.727  38.072  33.642  0.00  0.00    +0.000 A 
ATOM     26  C32 UNL     1      16.842  36.999  33.748  0.00  0.00    +0.000 A 
ATOM     27  H6  UNL     1      19.288  40.309  31.777  0.00  0.00    +0.000 HD
BRANCH  12  29
ATOM     28  C1  UNL     1      15.326  34.400  31.627  0.00  0.00    +0.000 C 
ATOM     29  O1  UNL     1      15.310  35.457  32.579  0.00  0.00    +0.000 OA
ENDBRANCH  12  29
ENDBRANCH  11  21
ENDBRANCH   1  11
BRANCH  10  30
ATOM     30  C20 UNL     1      20.055  34.946  39.250  0.00  0.00    +0.000 C 
BRANCH  30  31
ATOM     31  N4  UNL     1      20.597  33.680  39.750  0.00  0.00    +0.000 N 
ATOM     32  C21 UNL     1      21.859  33.498  40.404  0.00  0.00    +0.000 C 
ATOM     33  O3  UNL     1      22.555  34.435  40.880  0.00  0.00    +0.000 OA
ATOM     34  C22 UNL     1      22.235  32.088  40.390  0.00  0.00    +0.000 A 
ATOM     35  C23 UNL     1      23.344  31.434  40.924  0.00  0.00    +0.000 A 
ATOM     36  C24 UNL     1      23.444  30.044  40.735  0.00  0.00    +0.000 A 
ATOM     37  C25 UNL     1      22.448  29.345  40.016  0.00  0.00    +0.000 A 
ATOM     38  C26 UNL     1      21.343  30.029  39.482  0.00  0.00    +0.000 A 
ATOM     39  C27 UNL     1      21.261  31.405  39.696  0.00  0.00    +0.000 A 
ATOM     40  C28 UNL     1      20.260  32.373  39.270  0.00  0.00    +0.000 C 
ATOM     41  O4  UNL     1      19.271  32.120  38.531  0.00  0.00    +0.000 OA
ENDBRANCH  30  31
ENDBRANCH  10  30
TORSDOF 5
ENDMDL
