MODEL 1
REMARK VINA RESULT:    -7.442      0.000      0.000
REMARK INTER + INTRA:          -9.342
REMARK INTER:                  -8.747
REMARK INTRA:                  -0.595
REMARK UNBOUND:                -0.595
REMARK  Name = CNP0176716_3.pdb
REMARK  10 active torsions:
REMARK  status: ('A' for Active; 'I' for Inactive)
REMARK    1  A    between atoms: C1_1  and  C2_2
REMARK    2  A    between atoms: C2_2  and  O2_4
REMARK    3  A    between atoms: O2_4  and  C3_5
REMARK    4  A    between atoms: C8_10  and  C9_11
REMARK    5  A    between atoms: C13_16  and  C14_17
REMARK    6  A    between atoms: C13_16  and  C15_18
REMARK    7  A    between atoms: C18_21  and  O4_22
REMARK    8  A    between atoms: C19_23  and  C20_24
REMARK    9  A    between atoms: C23_28  and  O6_29
REMARK   10  A    between atoms: C26_34  and  C27_35
REMARK                            x       y       z     vdW  Elec       q    Type
REMARK                         _______ _______ _______ _____ _____    ______ ____
ROOT
ATOM      1  C3  UNL     1      16.568  39.205  32.809  0.00  0.00    +0.000 C 
ATOM      2  C4  UNL     1      17.278  40.415  33.429  0.00  0.00    +0.000 A 
ATOM      3  C5  UNL     1      18.232  40.274  34.481  0.00  0.00    +0.000 A 
ATOM      4  C6  UNL     1      18.573  38.934  35.086  0.00  0.00    +0.000 C 
ATOM      5  C7  UNL     1      19.190  38.992  36.518  0.00  0.00    +0.000 C 
ATOM      6  C8  UNL     1      19.654  37.550  37.075  0.00  0.00    +0.000 C 
ATOM      7  C9  UNL     1      18.942  36.398  36.299  0.00  0.00    +0.000 C 
ATOM      8  C10 UNL     1      19.249  37.345  38.524  0.00  0.00    +0.000 C 
ATOM      9  C11 UNL     1      19.790  36.345  39.238  0.00  0.00    +0.000 C 
ATOM     10  C12 UNL     1      20.889  35.509  38.686  0.00  0.00    +0.000 C 
ATOM     11  O3  UNL     1      21.124  34.389  39.216  0.00  0.00    +0.000 OA
ATOM     12  C13 UNL     1      21.781  36.017  37.550  0.00  0.00    +0.000 C 
ATOM     13  C14 UNL     1      21.896  34.973  36.412  0.00  0.00    +0.000 C 
ATOM     14  C15 UNL     1      23.204  36.198  38.144  0.00  0.00    +0.000 C 
ATOM     15  C16 UNL     1      21.224  37.409  37.061  0.00  0.00    +0.000 C 
ATOM     16  C17 UNL     1      21.818  38.013  35.789  0.00  0.00    +0.000 C 
ATOM     17  C18 UNL     1      21.628  39.555  35.785  0.00  0.00    +0.000 C 
ATOM     18  C19 UNL     1      20.335  40.070  36.540  0.00  0.00    +0.000 C 
ATOM     19  C20 UNL     1      20.633  40.502  38.002  0.00  0.00    +0.000 C 
ATOM     20  O5  UNL     1      19.900  41.290  35.924  0.00  0.00    +0.000 OA
ATOM     21  C21 UNL     1      18.917  41.400  34.943  0.00  0.00    +0.000 A 
ATOM     22  C22 UNL     1      18.623  42.664  34.440  0.00  0.00    +0.000 A 
ATOM     23  C23 UNL     1      17.623  42.842  33.488  0.00  0.00    +0.000 A 
ATOM     24  C24 UNL     1      16.890  41.722  33.029  0.00  0.00    +0.000 A 
ATOM     25  C25 UNL     1      15.677  41.856  32.186  0.00  0.00    +0.000 C 
ATOM     26  O7  UNL     1      15.010  42.922  32.158  0.00  0.00    +0.000 OA
ATOM     27  O8  UNL     1      15.193  40.741  31.504  0.00  0.00    +0.000 OA
ATOM     28  C26 UNL     1      15.946  39.536  31.428  0.00  0.00    +0.000 C 
ATOM     29  C27 UNL     1      17.000  39.662  30.319  0.00  0.00    +0.000 C 
ENDROOT
BRANCH  17  30
ATOM     30  O4  UNL     1      21.620  39.981  34.443  0.00  0.00    +0.000 OA
ATOM     31  H23 UNL     1      20.891  39.489  33.982  0.00  0.00    +0.000 HD
ENDBRANCH  17  30
BRANCH  23  32
ATOM     32  O6  UNL     1      17.416  44.135  33.004  0.00  0.00    +0.000 OA
ATOM     33  H28 UNL     1      16.607  44.405  32.459  0.00  0.00    +0.000 HD
ENDBRANCH  23  32
BRANCH   1  34
ATOM     34  O2  UNL     1      17.473  38.109  32.663  0.00  0.00    +0.000 OA
BRANCH  34  36
ATOM     35  C1  UNL     1      17.575  35.785  31.758  0.00  0.00    +0.000 C 
ATOM     36  C2  UNL     1      17.092  36.766  32.770  0.00  0.00    +0.000 C 
ATOM     37  O1  UNL     1      16.353  36.376  33.713  0.00  0.00    +0.000 OA
ENDBRANCH  34  36
ENDBRANCH   1  34
TORSDOF 4
ENDMDL
MODEL 2
REMARK VINA RESULT:    -7.183      1.188      1.494
REMARK INTER + INTRA:          -9.038
REMARK INTER:                  -8.435
REMARK INTRA:                  -0.603
REMARK UNBOUND:                -0.595
REMARK  Name = CNP0176716_3.pdb
REMARK  10 active torsions:
REMARK  status: ('A' for Active; 'I' for Inactive)
REMARK    1  A    between atoms: C1_1  and  C2_2
REMARK    2  A    between atoms: C2_2  and  O2_4
REMARK    3  A    between atoms: O2_4  and  C3_5
REMARK    4  A    between atoms: C8_10  and  C9_11
REMARK    5  A    between atoms: C13_16  and  C14_17
REMARK    6  A    between atoms: C13_16  and  C15_18
REMARK    7  A    between atoms: C18_21  and  O4_22
REMARK    8  A    between atoms: C19_23  and  C20_24
REMARK    9  A    between atoms: C23_28  and  O6_29
REMARK   10  A    between atoms: C26_34  and  C27_35
REMARK                            x       y       z     vdW  Elec       q    Type
REMARK                         _______ _______ _______ _____ _____    ______ ____
ROOT
ATOM      1  C3  UNL     1      16.913  37.386  32.944  0.00  0.00    +0.000 C 
ATOM      2  C4  UNL     1      17.311  38.756  33.510  0.00  0.00    +0.000 A 
ATOM      3  C5  UNL     1      18.265  38.890  34.563  0.00  0.00    +0.000 A 
ATOM      4  C6  UNL     1      18.912  37.696  35.221  0.00  0.00    +0.000 C 
ATOM      5  C7  UNL     1      19.491  37.959  36.648  0.00  0.00    +0.000 C 
ATOM      6  C8  UNL     1      20.281  36.692  37.261  0.00  0.00    +0.000 C 
ATOM      7  C9  UNL     1      19.869  35.373  36.537  0.00  0.00    +0.000 C 
ATOM      8  C10 UNL     1      19.929  36.457  38.720  0.00  0.00    +0.000 C 
ATOM      9  C11 UNL     1      20.689  35.645  39.472  0.00  0.00    +0.000 C 
ATOM     10  C12 UNL     1      21.959  35.074  38.950  0.00  0.00    +0.000 C 
ATOM     11  O3  UNL     1      22.451  34.065  39.525  0.00  0.00    +0.000 OA
ATOM     12  C13 UNL     1      22.711  35.733  37.790  0.00  0.00    +0.000 C 
ATOM     13  C14 UNL     1      23.077  34.700  36.696  0.00  0.00    +0.000 C 
ATOM     14  C15 UNL     1      24.045  36.272  38.370  0.00  0.00    +0.000 C 
ATOM     15  C16 UNL     1      21.840  36.930  37.247  0.00  0.00    +0.000 C 
ATOM     16  C17 UNL     1      22.279  37.606  35.947  0.00  0.00    +0.000 C 
ATOM     17  C18 UNL     1      21.727  39.056  35.881  0.00  0.00    +0.000 C 
ATOM     18  C19 UNL     1      20.345  39.278  36.620  0.00  0.00    +0.000 C 
ATOM     19  C20 UNL     1      20.523  39.829  38.061  0.00  0.00    +0.000 C 
ATOM     20  O5  UNL     1      19.635  40.333  35.955  0.00  0.00    +0.000 OA
ATOM     21  C21 UNL     1      18.660  40.165  34.976  0.00  0.00    +0.000 A 
ATOM     22  C22 UNL     1      18.075  41.300  34.422  0.00  0.00    +0.000 A 
ATOM     23  C23 UNL     1      17.067  41.195  33.467  0.00  0.00    +0.000 A 
ATOM     24  C24 UNL     1      16.625  39.914  33.058  0.00  0.00    +0.000 A 
ATOM     25  C25 UNL     1      15.419  39.721  32.216  0.00  0.00    +0.000 C 
ATOM     26  O7  UNL     1      14.518  40.595  32.147  0.00  0.00    +0.000 OA
ATOM     27  O8  UNL     1      15.219  38.495  31.583  0.00  0.00    +0.000 OA
ATOM     28  C26 UNL     1      16.238  37.502  31.553  0.00  0.00    +0.000 C 
ATOM     29  C27 UNL     1      17.238  37.830  30.436  0.00  0.00    +0.000 C 
ENDROOT
BRANCH  17  30
ATOM     30  O4  UNL     1      21.626  39.412  34.523  0.00  0.00    +0.000 OA
ATOM     31  H23 UNL     1      21.427  38.582  34.015  0.00  0.00    +0.000 HD
ENDBRANCH  17  30
BRANCH  23  32
ATOM     32  O6  UNL     1      16.560  42.381  32.932  0.00  0.00    +0.000 OA
ATOM     33  H28 UNL     1      16.814  42.735  32.019  0.00  0.00    +0.000 HD
ENDBRANCH  23  32
BRANCH   1  34
ATOM     34  O2  UNL     1      18.055  36.533  32.840  0.00  0.00    +0.000 OA
BRANCH  34  36
ATOM     35  C1  UNL     1      18.386  34.369  31.640  0.00  0.00    +0.000 C 
ATOM     36  C2  UNL     1      17.984  35.135  32.854  0.00  0.00    +0.000 C 
ATOM     37  O1  UNL     1      17.592  34.517  33.880  0.00  0.00    +0.000 OA
ENDBRANCH  34  36
ENDBRANCH   1  34
TORSDOF 4
ENDMDL
MODEL 3
REMARK VINA RESULT:    -6.537      2.933      9.206
REMARK INTER + INTRA:          -8.278
REMARK INTER:                  -7.736
REMARK INTRA:                  -0.542
REMARK UNBOUND:                -0.595
REMARK  Name = CNP0176716_3.pdb
REMARK  10 active torsions:
REMARK  status: ('A' for Active; 'I' for Inactive)
REMARK    1  A    between atoms: C1_1  and  C2_2
REMARK    2  A    between atoms: C2_2  and  O2_4
REMARK    3  A    between atoms: O2_4  and  C3_5
REMARK    4  A    between atoms: C8_10  and  C9_11
REMARK    5  A    between atoms: C13_16  and  C14_17
REMARK    6  A    between atoms: C13_16  and  C15_18
REMARK    7  A    between atoms: C18_21  and  O4_22
REMARK    8  A    between atoms: C19_23  and  C20_24
REMARK    9  A    between atoms: C23_28  and  O6_29
REMARK   10  A    between atoms: C26_34  and  C27_35
REMARK                            x       y       z     vdW  Elec       q    Type
REMARK                         _______ _______ _______ _____ _____    ______ ____
ROOT
ATOM      1  C3  UNL     1      25.588  35.661  37.867  0.00  0.00    +0.000 C 
ATOM      2  C4  UNL     1      24.444  35.284  38.817  0.00  0.00    +0.000 A 
ATOM      3  C5  UNL     1      23.117  35.774  38.633  0.00  0.00    +0.000 A 
ATOM      4  C6  UNL     1      22.757  36.730  37.521  0.00  0.00    +0.000 C 
ATOM      5  C7  UNL     1      21.459  37.564  37.759  0.00  0.00    +0.000 C 
ATOM      6  C8  UNL     1      21.046  38.479  36.495  0.00  0.00    +0.000 C 
ATOM      7  C9  UNL     1      22.265  38.707  35.548  0.00  0.00    +0.000 C 
ATOM      8  C10 UNL     1      20.622  39.874  36.920  0.00  0.00    +0.000 C 
ATOM      9  C11 UNL     1      19.976  40.673  36.054  0.00  0.00    +0.000 C 
ATOM     10  C12 UNL     1      19.536  40.174  34.724  0.00  0.00    +0.000 C 
ATOM     11  O3  UNL     1      19.264  41.013  33.823  0.00  0.00    +0.000 OA
ATOM     12  C13 UNL     1      19.334  38.680  34.462  0.00  0.00    +0.000 C 
ATOM     13  C14 UNL     1      20.057  38.231  33.168  0.00  0.00    +0.000 C 
ATOM     14  C15 UNL     1      17.814  38.467  34.229  0.00  0.00    +0.000 C 
ATOM     15  C16 UNL     1      19.797  37.881  35.740  0.00  0.00    +0.000 C 
ATOM     16  C17 UNL     1      19.895  36.358  35.639  0.00  0.00    +0.000 C 
ATOM     17  C18 UNL     1      19.765  35.715  37.047  0.00  0.00    +0.000 C 
ATOM     18  C19 UNL     1      20.312  36.603  38.239  0.00  0.00    +0.000 C 
ATOM     19  C20 UNL     1      19.189  37.418  38.937  0.00  0.00    +0.000 C 
ATOM     20  O5  UNL     1      20.776  35.733  39.281  0.00  0.00    +0.000 OA
ATOM     21  C21 UNL     1      22.094  35.325  39.473  0.00  0.00    +0.000 A 
ATOM     22  C22 UNL     1      22.375  34.466  40.530  0.00  0.00    +0.000 A 
ATOM     23  C23 UNL     1      23.678  34.055  40.795  0.00  0.00    +0.000 A 
ATOM     24  C24 UNL     1      24.736  34.524  39.981  0.00  0.00    +0.000 A 
ATOM     25  C25 UNL     1      26.162  34.308  40.327  0.00  0.00    +0.000 C 
ATOM     26  O7  UNL     1      26.523  34.066  41.507  0.00  0.00    +0.000 OA
ATOM     27  O8  UNL     1      27.138  34.497  39.350  0.00  0.00    +0.000 OA
ATOM     28  C26 UNL     1      26.789  34.687  37.983  0.00  0.00    +0.000 C 
ATOM     29  C27 UNL     1      26.510  33.324  37.333  0.00  0.00    +0.000 C 
ENDROOT
BRANCH  17  30
ATOM     30  O4  UNL     1      20.425  34.472  37.012  0.00  0.00    +0.000 OA
ATOM     31  H23 UNL     1      19.993  33.891  37.692  0.00  0.00    +0.000 HD
ENDBRANCH  17  30
BRANCH  23  32
ATOM     32  O6  UNL     1      23.871  33.161  41.850  0.00  0.00    +0.000 OA
ATOM     33  H28 UNL     1      24.750  33.055  42.340  0.00  0.00    +0.000 HD
ENDBRANCH  23  32
BRANCH   1  34
ATOM     34  O2  UNL     1      25.133  35.681  36.512  0.00  0.00    +0.000 OA
BRANCH  34  36
ATOM     35  C1  UNL     1      25.031  36.586  34.188  0.00  0.00    +0.000 C 
ATOM     36  C2  UNL     1      25.710  36.470  35.511  0.00  0.00    +0.000 C 
ATOM     37  O1  UNL     1      26.789  37.087  35.714  0.00  0.00    +0.000 OA
ENDBRANCH  34  36
ENDBRANCH   1  34
TORSDOF 4
ENDMDL
MODEL 4
REMARK VINA RESULT:    -6.409      2.255      8.069
REMARK INTER + INTRA:          -8.128
REMARK INTER:                  -7.551
REMARK INTRA:                  -0.577
REMARK UNBOUND:                -0.595
REMARK  Name = CNP0176716_3.pdb
REMARK  10 active torsions:
REMARK  status: ('A' for Active; 'I' for Inactive)
REMARK    1  A    between atoms: C1_1  and  C2_2
REMARK    2  A    between atoms: C2_2  and  O2_4
REMARK    3  A    between atoms: O2_4  and  C3_5
REMARK    4  A    between atoms: C8_10  and  C9_11
REMARK    5  A    between atoms: C13_16  and  C14_17
REMARK    6  A    between atoms: C13_16  and  C15_18
REMARK    7  A    between atoms: C18_21  and  O4_22
REMARK    8  A    between atoms: C19_23  and  C20_24
REMARK    9  A    between atoms: C23_28  and  O6_29
REMARK   10  A    between atoms: C26_34  and  C27_35
REMARK                            x       y       z     vdW  Elec       q    Type
REMARK                         _______ _______ _______ _____ _____    ______ ____
ROOT
ATOM      1  C3  UNL     1      20.407  36.231  38.492  0.00  0.00    +0.000 C 
ATOM      2  C4  UNL     1      20.147  35.326  37.281  0.00  0.00    +0.000 A 
ATOM      3  C5  UNL     1      19.810  35.856  36.000  0.00  0.00    +0.000 A 
ATOM      4  C6  UNL     1      19.640  37.336  35.759  0.00  0.00    +0.000 C 
ATOM      5  C7  UNL     1      18.781  37.711  34.510  0.00  0.00    +0.000 C 
ATOM      6  C8  UNL     1      18.730  39.298  34.220  0.00  0.00    +0.000 C 
ATOM      7  C9  UNL     1      19.111  40.111  35.497  0.00  0.00    +0.000 C 
ATOM      8  C10 UNL     1      17.327  39.765  33.872  0.00  0.00    +0.000 C 
ATOM      9  C11 UNL     1      17.139  40.976  33.324  0.00  0.00    +0.000 C 
ATOM     10  C12 UNL     1      18.290  41.826  32.916  0.00  0.00    +0.000 C 
ATOM     11  O3  UNL     1      18.100  43.061  32.744  0.00  0.00    +0.000 OA
ATOM     12  C13 UNL     1      19.664  41.217  32.626  0.00  0.00    +0.000 C 
ATOM     13  C14 UNL     1      20.786  41.975  33.378  0.00  0.00    +0.000 C 
ATOM     14  C15 UNL     1      19.928  41.408  31.108  0.00  0.00    +0.000 C 
ATOM     15  C16 UNL     1      19.614  39.680  32.972  0.00  0.00    +0.000 C 
ATOM     16  C17 UNL     1      20.929  38.900  32.972  0.00  0.00    +0.000 C 
ATOM     17  C18 UNL     1      20.660  37.389  32.732  0.00  0.00    +0.000 C 
ATOM     18  C19 UNL     1      19.270  36.864  33.280  0.00  0.00    +0.000 C 
ATOM     19  C20 UNL     1      18.171  36.835  32.182  0.00  0.00    +0.000 C 
ATOM     20  O5  UNL     1      19.411  35.481  33.633  0.00  0.00    +0.000 OA
ATOM     21  C21 UNL     1      19.676  34.992  34.910  0.00  0.00    +0.000 A 
ATOM     22  C22 UNL     1      19.795  33.616  35.081  0.00  0.00    +0.000 A 
ATOM     23  C23 UNL     1      20.021  33.066  36.339  0.00  0.00    +0.000 A 
ATOM     24  C24 UNL     1      20.124  33.918  37.465  0.00  0.00    +0.000 A 
ATOM     25  C25 UNL     1      20.148  33.400  38.855  0.00  0.00    +0.000 C 
ATOM     26  O7  UNL     1      19.690  32.264  39.142  0.00  0.00    +0.000 OA
ATOM     27  O8  UNL     1      20.571  34.236  39.886  0.00  0.00    +0.000 OA
ATOM     28  C26 UNL     1      21.178  35.495  39.617  0.00  0.00    +0.000 C 
ATOM     29  C27 UNL     1      22.661  35.286  39.279  0.00  0.00    +0.000 C 
ENDROOT
BRANCH  17  30
ATOM     30  O4  UNL     1      21.723  36.669  33.307  0.00  0.00    +0.000 OA
ATOM     31  H23 UNL     1      21.762  36.919  34.268  0.00  0.00    +0.000 HD
ENDBRANCH  17  30
BRANCH  23  32
ATOM     32  O6  UNL     1      20.168  31.679  36.420  0.00  0.00    +0.000 OA
ATOM     33  H28 UNL     1      21.028  31.224  36.693  0.00  0.00    +0.000 HD
ENDBRANCH  23  32
BRANCH   1  34
ATOM     34  O2  UNL     1      21.142  37.394  38.104  0.00  0.00    +0.000 OA
BRANCH  34  36
ATOM     35  C1  UNL     1      19.734  38.888  39.524  0.00  0.00    +0.000 C 
ATOM     36  C2  UNL     1      20.887  38.676  38.602  0.00  0.00    +0.000 C 
ATOM     37  O1  UNL     1      21.620  39.651  38.287  0.00  0.00    +0.000 OA
ENDBRANCH  34  36
ENDBRANCH   1  34
TORSDOF 4
ENDMDL
MODEL 5
REMARK VINA RESULT:    -6.336      2.997      8.198
REMARK INTER + INTRA:          -8.043
REMARK INTER:                  -7.390
REMARK INTRA:                  -0.653
REMARK UNBOUND:                -0.595
REMARK  Name = CNP0176716_3.pdb
REMARK  10 active torsions:
REMARK  status: ('A' for Active; 'I' for Inactive)
REMARK    1  A    between atoms: C1_1  and  C2_2
REMARK    2  A    between atoms: C2_2  and  O2_4
REMARK    3  A    between atoms: O2_4  and  C3_5
REMARK    4  A    between atoms: C8_10  and  C9_11
REMARK    5  A    between atoms: C13_16  and  C14_17
REMARK    6  A    between atoms: C13_16  and  C15_18
REMARK    7  A    between atoms: C18_21  and  O4_22
REMARK    8  A    between atoms: C19_23  and  C20_24
REMARK    9  A    between atoms: C23_28  and  O6_29
REMARK   10  A    between atoms: C26_34  and  C27_35
REMARK                            x       y       z     vdW  Elec       q    Type
REMARK                         _______ _______ _______ _____ _____    ______ ____
ROOT
ATOM      1  C3  UNL     1      19.736  32.167  37.159  0.00  0.00    +0.000 C 
ATOM      2  C4  UNL     1      20.257  33.249  38.114  0.00  0.00    +0.000 A 
ATOM      3  C5  UNL     1      20.439  34.601  37.696  0.00  0.00    +0.000 A 
ATOM      4  C6  UNL     1      20.177  35.050  36.279  0.00  0.00    +0.000 C 
ATOM      5  C7  UNL     1      20.904  36.365  35.856  0.00  0.00    +0.000 C 
ATOM      6  C8  UNL     1      20.498  36.874  34.378  0.00  0.00    +0.000 C 
ATOM      7  C9  UNL     1      19.887  35.711  33.536  0.00  0.00    +0.000 C 
ATOM      8  C10 UNL     1      21.710  37.328  33.583  0.00  0.00    +0.000 C 
ATOM      9  C11 UNL     1      21.546  38.045  32.459  0.00  0.00    +0.000 C 
ATOM     10  C12 UNL     1      20.203  38.529  32.042  0.00  0.00    +0.000 C 
ATOM     11  O3  UNL     1      20.031  38.876  30.842  0.00  0.00    +0.000 OA
ATOM     12  C13 UNL     1      19.065  38.688  33.053  0.00  0.00    +0.000 C 
ATOM     13  C14 UNL     1      17.765  38.012  32.550  0.00  0.00    +0.000 C 
ATOM     14  C15 UNL     1      18.772  40.208  33.164  0.00  0.00    +0.000 C 
ATOM     15  C16 UNL     1      19.553  38.134  34.447  0.00  0.00    +0.000 C 
ATOM     16  C17 UNL     1      18.519  37.984  35.562  0.00  0.00    +0.000 C 
ATOM     17  C18 UNL     1      19.214  38.021  36.951  0.00  0.00    +0.000 C 
ATOM     18  C19 UNL     1      20.691  37.451  36.972  0.00  0.00    +0.000 C 
ATOM     19  C20 UNL     1      21.761  38.569  36.841  0.00  0.00    +0.000 C 
ATOM     20  O5  UNL     1      20.951  36.904  38.273  0.00  0.00    +0.000 OA
ATOM     21  C21 UNL     1      20.826  35.564  38.632  0.00  0.00    +0.000 A 
ATOM     22  C22 UNL     1      21.107  35.201  39.945  0.00  0.00    +0.000 A 
ATOM     23  C23 UNL     1      21.038  33.872  40.353  0.00  0.00    +0.000 A 
ATOM     24  C24 UNL     1      20.683  32.873  39.416  0.00  0.00    +0.000 A 
ATOM     25  C25 UNL     1      20.796  31.424  39.715  0.00  0.00    +0.000 C 
ATOM     26  O7  UNL     1      21.559  30.998  40.620  0.00  0.00    +0.000 OA
ATOM     27  O8  UNL     1      20.140  30.505  38.899  0.00  0.00    +0.000 OA
ATOM     28  C26 UNL     1      19.199  30.927  37.918  0.00  0.00    +0.000 C 
ATOM     29  C27 UNL     1      17.843  31.185  38.588  0.00  0.00    +0.000 C 
ENDROOT
BRANCH  17  30
ATOM     30  O4  UNL     1      18.398  37.318  37.856  0.00  0.00    +0.000 OA
ATOM     31  H23 UNL     1      17.454  37.534  37.632  0.00  0.00    +0.000 HD
ENDBRANCH  17  30
BRANCH  23  32
ATOM     32  O6  UNL     1      21.296  33.595  41.697  0.00  0.00    +0.000 OA
ATOM     33  H28 UNL     1      22.219  33.638  42.109  0.00  0.00    +0.000 HD
ENDBRANCH  23  32
BRANCH   1  34
ATOM     34  O2  UNL     1      18.700  32.688  36.323  0.00  0.00    +0.000 OA
BRANCH  34  36
ATOM     35  C1  UNL     1      19.609  31.706  34.216  0.00  0.00    +0.000 C 
ATOM     36  C2  UNL     1      18.476  32.264  35.008  0.00  0.00    +0.000 C 
ATOM     37  O1  UNL     1      17.331  32.341  34.489  0.00  0.00    +0.000 OA
ENDBRANCH  34  36
ENDBRANCH   1  34
TORSDOF 4
ENDMDL
MODEL 6
REMARK VINA RESULT:    -6.336      2.975      4.473
REMARK INTER + INTRA:          -8.043
REMARK INTER:                  -7.448
REMARK INTRA:                  -0.594
REMARK UNBOUND:                -0.595
REMARK  Name = CNP0176716_3.pdb
REMARK  10 active torsions:
REMARK  status: ('A' for Active; 'I' for Inactive)
REMARK    1  A    between atoms: C1_1  and  C2_2
REMARK    2  A    between atoms: C2_2  and  O2_4
REMARK    3  A    between atoms: O2_4  and  C3_5
REMARK    4  A    between atoms: C8_10  and  C9_11
REMARK    5  A    between atoms: C13_16  and  C14_17
REMARK    6  A    between atoms: C13_16  and  C15_18
REMARK    7  A    between atoms: C18_21  and  O4_22
REMARK    8  A    between atoms: C19_23  and  C20_24
REMARK    9  A    between atoms: C23_28  and  O6_29
REMARK   10  A    between atoms: C26_34  and  C27_35
REMARK                            x       y       z     vdW  Elec       q    Type
REMARK                         _______ _______ _______ _____ _____    ______ ____
ROOT
ATOM      1  C3  UNL     1      22.531  40.366  32.696  0.00  0.00    +0.000 C 
ATOM      2  C4  UNL     1      21.327  40.739  33.570  0.00  0.00    +0.000 A 
ATOM      3  C5  UNL     1      20.875  39.898  34.631  0.00  0.00    +0.000 A 
ATOM      4  C6  UNL     1      21.519  38.567  34.935  0.00  0.00    +0.000 C 
ATOM      5  C7  UNL     1      20.623  37.563  35.726  0.00  0.00    +0.000 C 
ATOM      6  C8  UNL     1      21.392  36.205  36.137  0.00  0.00    +0.000 C 
ATOM      7  C9  UNL     1      22.655  35.987  35.246  0.00  0.00    +0.000 C 
ATOM      8  C10 UNL     1      20.535  34.973  35.897  0.00  0.00    +0.000 C 
ATOM      9  C11 UNL     1      20.884  33.796  36.439  0.00  0.00    +0.000 C 
ATOM     10  C12 UNL     1      22.021  33.692  37.393  0.00  0.00    +0.000 C 
ATOM     11  O3  UNL     1      22.536  32.559  37.600  0.00  0.00    +0.000 OA
ATOM     12  C13 UNL     1      22.515  34.910  38.178  0.00  0.00    +0.000 C 
ATOM     13  C14 UNL     1      24.052  35.065  38.069  0.00  0.00    +0.000 C 
ATOM     14  C15 UNL     1      22.191  34.643  39.672  0.00  0.00    +0.000 C 
ATOM     15  C16 UNL     1      21.726  36.180  37.678  0.00  0.00    +0.000 C 
ATOM     16  C17 UNL     1      22.196  37.553  38.158  0.00  0.00    +0.000 C 
ATOM     17  C18 UNL     1      21.030  38.577  38.092  0.00  0.00    +0.000 C 
ATOM     18  C19 UNL     1      19.970  38.308  36.946  0.00  0.00    +0.000 C 
ATOM     19  C20 UNL     1      18.733  37.519  37.454  0.00  0.00    +0.000 C 
ATOM     20  O5  UNL     1      19.410  39.564  36.539  0.00  0.00    +0.000 OA
ATOM     21  C21 UNL     1      19.833  40.330  35.455  0.00  0.00    +0.000 A 
ATOM     22  C22 UNL     1      19.185  41.536  35.203  0.00  0.00    +0.000 A 
ATOM     23  C23 UNL     1      19.538  42.325  34.112  0.00  0.00    +0.000 A 
ATOM     24  C24 UNL     1      20.566  41.893  33.242  0.00  0.00    +0.000 A 
ATOM     25  C25 UNL     1      20.850  42.564  31.949  0.00  0.00    +0.000 C 
ATOM     26  O7  UNL     1      19.984  43.270  31.372  0.00  0.00    +0.000 OA
ATOM     27  O8  UNL     1      22.055  42.310  31.299  0.00  0.00    +0.000 OA
ATOM     28  C26 UNL     1      23.105  41.592  31.939  0.00  0.00    +0.000 C 
ATOM     29  C27 UNL     1      23.887  42.541  32.856  0.00  0.00    +0.000 C 
ENDROOT
BRANCH  17  30
ATOM     30  O4  UNL     1      21.593  39.859  37.956  0.00  0.00    +0.000 OA
ATOM     31  H23 UNL     1      20.866  40.518  38.111  0.00  0.00    +0.000 HD
ENDBRANCH  17  30
BRANCH  23  32
ATOM     32  O6  UNL     1      18.867  43.539  33.951  0.00  0.00    +0.000 OA
ATOM     33  H28 UNL     1      18.628  43.930  33.050  0.00  0.00    +0.000 HD
ENDBRANCH  23  32
BRANCH   1  34
ATOM     34  O2  UNL     1      23.567  39.779  33.486  0.00  0.00    +0.000 OA
BRANCH  34  36
ATOM     35  C1  UNL     1      25.969  39.106  33.411  0.00  0.00    +0.000 C 
ATOM     36  C2  UNL     1      24.556  38.935  32.968  0.00  0.00    +0.000 C 
ATOM     37  O1  UNL     1      24.267  38.030  32.140  0.00  0.00    +0.000 OA
ENDBRANCH  34  36
ENDBRANCH   1  34
TORSDOF 4
ENDMDL
MODEL 7
REMARK VINA RESULT:    -6.084      1.723      8.031
REMARK INTER + INTRA:          -7.747
REMARK INTER:                  -7.384
REMARK INTRA:                  -0.362
REMARK UNBOUND:                -0.595
REMARK  Name = CNP0176716_3.pdb
REMARK  10 active torsions:
REMARK  status: ('A' for Active; 'I' for Inactive)
REMARK    1  A    between atoms: C1_1  and  C2_2
REMARK    2  A    between atoms: C2_2  and  O2_4
REMARK    3  A    between atoms: O2_4  and  C3_5
REMARK    4  A    between atoms: C8_10  and  C9_11
REMARK    5  A    between atoms: C13_16  and  C14_17
REMARK    6  A    between atoms: C13_16  and  C15_18
REMARK    7  A    between atoms: C18_21  and  O4_22
REMARK    8  A    between atoms: C19_23  and  C20_24
REMARK    9  A    between atoms: C23_28  and  O6_29
REMARK   10  A    between atoms: C26_34  and  C27_35
REMARK                            x       y       z     vdW  Elec       q    Type
REMARK                         _______ _______ _______ _____ _____    ______ ____
ROOT
ATOM      1  C3  UNL     1      19.974  37.825  37.368  0.00  0.00    +0.000 C 
ATOM      2  C4  UNL     1      19.717  36.658  36.407  0.00  0.00    +0.000 A 
ATOM      3  C5  UNL     1      19.104  36.850  35.133  0.00  0.00    +0.000 A 
ATOM      4  C6  UNL     1      18.625  38.202  34.664  0.00  0.00    +0.000 C 
ATOM      5  C7  UNL     1      17.539  38.169  33.543  0.00  0.00    +0.000 C 
ATOM      6  C8  UNL     1      17.149  39.632  32.986  0.00  0.00    +0.000 C 
ATOM      7  C9  UNL     1      17.551  40.743  34.005  0.00  0.00    +0.000 C 
ATOM      8  C10 UNL     1      15.647  39.791  32.816  0.00  0.00    +0.000 C 
ATOM      9  C11 UNL     1      15.157  40.817  32.101  0.00  0.00    +0.000 C 
ATOM     10  C12 UNL     1      16.056  41.732  31.347  0.00  0.00    +0.000 C 
ATOM     11  O3  UNL     1      15.614  42.859  30.993  0.00  0.00    +0.000 OA
ATOM     12  C13 UNL     1      17.463  41.299  30.930  0.00  0.00    +0.000 C 
ATOM     13  C14 UNL     1      18.519  42.362  31.320  0.00  0.00    +0.000 C 
ATOM     14  C15 UNL     1      17.464  41.207  29.381  0.00  0.00    +0.000 C 
ATOM     15  C16 UNL     1      17.754  39.879  31.551  0.00  0.00    +0.000 C 
ATOM     16  C17 UNL     1      19.179  39.331  31.456  0.00  0.00    +0.000 C 
ATOM     17  C18 UNL     1      19.167  37.781  31.544  0.00  0.00    +0.000 C 
ATOM     18  C19 UNL     1      17.995  37.171  32.417  0.00  0.00    +0.000 C 
ATOM     19  C20 UNL     1      16.775  36.742  31.557  0.00  0.00    +0.000 C 
ATOM     20  O5  UNL     1      18.444  35.932  32.983  0.00  0.00    +0.000 OA
ATOM     21  C21 UNL     1      18.979  35.767  34.259  0.00  0.00    +0.000 A 
ATOM     22  C22 UNL     1      19.379  34.493  34.650  0.00  0.00    +0.000 A 
ATOM     23  C23 UNL     1      19.884  34.260  35.926  0.00  0.00    +0.000 A 
ATOM     24  C24 UNL     1      19.987  35.333  36.842  0.00  0.00    +0.000 A 
ATOM     25  C25 UNL     1      20.308  35.128  38.276  0.00  0.00    +0.000 C 
ATOM     26  O7  UNL     1      20.120  34.019  38.840  0.00  0.00    +0.000 OA
ATOM     27  O8  UNL     1      20.712  36.216  39.047  0.00  0.00    +0.000 OA
ATOM     28  C26 UNL     1      21.025  37.470  38.451  0.00  0.00    +0.000 C 
ATOM     29  C27 UNL     1      22.456  37.429  37.896  0.00  0.00    +0.000 C 
ENDROOT
BRANCH  17  30
ATOM     30  O4  UNL     1      20.419  37.371  32.039  0.00  0.00    +0.000 OA
ATOM     31  H23 UNL     1      20.821  38.152  32.504  0.00  0.00    +0.000 HD
ENDBRANCH  17  30
BRANCH  23  32
ATOM     32  O6  UNL     1      20.299  32.961  36.228  0.00  0.00    +0.000 OA
ATOM     33  H28 UNL     1      21.261  32.713  36.419  0.00  0.00    +0.000 HD
ENDBRANCH  23  32
BRANCH   1  34
ATOM     34  O2  UNL     1      20.413  38.982  36.652  0.00  0.00    +0.000 OA
BRANCH  34  36
ATOM     35  C1  UNL     1      19.856  40.566  38.499  0.00  0.00    +0.000 C 
ATOM     36  C2  UNL     1      20.157  40.294  37.065  0.00  0.00    +0.000 C 
ATOM     37  O1  UNL     1      20.185  41.248  36.242  0.00  0.00    +0.000 OA
ENDBRANCH  34  36
ENDBRANCH   1  34
TORSDOF 4
ENDMDL
MODEL 8
REMARK VINA RESULT:    -5.852      2.667      4.357
REMARK INTER + INTRA:          -7.474
REMARK INTER:                  -6.871
REMARK INTRA:                  -0.603
REMARK UNBOUND:                -0.595
REMARK  Name = CNP0176716_3.pdb
REMARK  10 active torsions:
REMARK  status: ('A' for Active; 'I' for Inactive)
REMARK    1  A    between atoms: C1_1  and  C2_2
REMARK    2  A    between atoms: C2_2  and  O2_4
REMARK    3  A    between atoms: O2_4  and  C3_5
REMARK    4  A    between atoms: C8_10  and  C9_11
REMARK    5  A    between atoms: C13_16  and  C14_17
REMARK    6  A    between atoms: C13_16  and  C15_18
REMARK    7  A    between atoms: C18_21  and  O4_22
REMARK    8  A    between atoms: C19_23  and  C20_24
REMARK    9  A    between atoms: C23_28  and  O6_29
REMARK   10  A    between atoms: C26_34  and  C27_35
REMARK                            x       y       z     vdW  Elec       q    Type
REMARK                         _______ _______ _______ _____ _____    ______ ____
ROOT
ATOM      1  C3  UNL     1      18.486  37.201  34.040  0.00  0.00    +0.000 C 
ATOM      2  C4  UNL     1      19.286  37.825  35.190  0.00  0.00    +0.000 A 
ATOM      3  C5  UNL     1      19.955  37.026  36.165  0.00  0.00    +0.000 A 
ATOM      4  C6  UNL     1      19.883  35.519  36.159  0.00  0.00    +0.000 C 
ATOM      5  C7  UNL     1      20.193  34.835  37.529  0.00  0.00    +0.000 C 
ATOM      6  C8  UNL     1      20.227  33.224  37.447  0.00  0.00    +0.000 C 
ATOM      7  C9  UNL     1      19.469  32.713  36.182  0.00  0.00    +0.000 C 
ATOM      8  C10 UNL     1      19.501  32.582  38.616  0.00  0.00    +0.000 C 
ATOM      9  C11 UNL     1      19.668  31.275  38.875  0.00  0.00    +0.000 C 
ATOM     10  C12 UNL     1      20.662  30.460  38.126  0.00  0.00    +0.000 C 
ATOM     11  O3  UNL     1      20.548  29.204  38.138  0.00  0.00    +0.000 OA
ATOM     12  C13 UNL     1      21.853  31.112  37.418  0.00  0.00    +0.000 C 
ATOM     13  C14 UNL     1      21.981  30.614  35.957  0.00  0.00    +0.000 C 
ATOM     14  C15 UNL     1      23.129  30.649  38.169  0.00  0.00    +0.000 C 
ATOM     15  C16 UNL     1      21.704  32.678  37.529  0.00  0.00    +0.000 C 
ATOM     16  C17 UNL     1      22.657  33.550  36.710  0.00  0.00    +0.000 C 
ATOM     17  C18 UNL     1      22.791  34.955  37.356  0.00  0.00    +0.000 C 
ATOM     18  C19 UNL     1      21.504  35.460  38.129  0.00  0.00    +0.000 C 
ATOM     19  C20 UNL     1      21.579  35.181  39.655  0.00  0.00    +0.000 C 
ATOM     20  O5  UNL     1      21.465  36.893  38.063  0.00  0.00    +0.000 OA
ATOM     21  C21 UNL     1      20.747  37.645  37.136  0.00  0.00    +0.000 A 
ATOM     22  C22 UNL     1      20.827  39.032  37.204  0.00  0.00    +0.000 A 
ATOM     23  C23 UNL     1      20.102  39.837  36.330  0.00  0.00    +0.000 A 
ATOM     24  C24 UNL     1      19.265  39.235  35.360  0.00  0.00    +0.000 A 
ATOM     25  C25 UNL     1      18.304  40.016  34.544  0.00  0.00    +0.000 C 
ATOM     26  O7  UNL     1      17.890  41.144  34.915  0.00  0.00    +0.000 OA
ATOM     27  O8  UNL     1      17.752  39.439  33.402  0.00  0.00    +0.000 OA
ATOM     28  C26 UNL     1      18.241  38.207  32.885  0.00  0.00    +0.000 C 
ATOM     29  C27 UNL     1      19.503  38.468  32.051  0.00  0.00    +0.000 C 
ENDROOT
BRANCH  17  30
ATOM     30  O4  UNL     1      23.146  35.861  36.339  0.00  0.00    +0.000 OA
ATOM     31  H23 UNL     1      23.979  35.519  35.918  0.00  0.00    +0.000 HD
ENDBRANCH  17  30
BRANCH  23  32
ATOM     32  O6  UNL     1      20.267  41.219  36.438  0.00  0.00    +0.000 OA
ATOM     33  H28 UNL     1      20.800  41.662  37.174  0.00  0.00    +0.000 HD
ENDBRANCH  23  32
BRANCH   1  34
ATOM     34  O2  UNL     1      19.158  36.050  33.523  0.00  0.00    +0.000 OA
BRANCH  34  36
ATOM     35  C1  UNL     1      18.888  34.468  31.612  0.00  0.00    +0.000 C 
ATOM     36  C2  UNL     1      18.497  34.949  32.968  0.00  0.00    +0.000 C 
ATOM     37  O1  UNL     1      17.583  34.355  33.600  0.00  0.00    +0.000 OA
ENDBRANCH  34  36
ENDBRANCH   1  34
TORSDOF 4
ENDMDL
MODEL 9
REMARK VINA RESULT:    -5.776      2.826      6.853
REMARK INTER + INTRA:          -7.384
REMARK INTER:                  -6.688
REMARK INTRA:                  -0.697
REMARK UNBOUND:                -0.595
REMARK  Name = CNP0176716_3.pdb
REMARK  10 active torsions:
REMARK  status: ('A' for Active; 'I' for Inactive)
REMARK    1  A    between atoms: C1_1  and  C2_2
REMARK    2  A    between atoms: C2_2  and  O2_4
REMARK    3  A    between atoms: O2_4  and  C3_5
REMARK    4  A    between atoms: C8_10  and  C9_11
REMARK    5  A    between atoms: C13_16  and  C14_17
REMARK    6  A    between atoms: C13_16  and  C15_18
REMARK    7  A    between atoms: C18_21  and  O4_22
REMARK    8  A    between atoms: C19_23  and  C20_24
REMARK    9  A    between atoms: C23_28  and  O6_29
REMARK   10  A    between atoms: C26_34  and  C27_35
REMARK                            x       y       z     vdW  Elec       q    Type
REMARK                         _______ _______ _______ _____ _____    ______ ____
ROOT
ATOM      1  C3  UNL     1      20.541  36.842  37.186  0.00  0.00    +0.000 C 
ATOM      2  C4  UNL     1      19.896  37.746  36.127  0.00  0.00    +0.000 A 
ATOM      3  C5  UNL     1      19.535  37.257  34.836  0.00  0.00    +0.000 A 
ATOM      4  C6  UNL     1      19.804  35.835  34.408  0.00  0.00    +0.000 C 
ATOM      5  C7  UNL     1      19.851  35.606  32.864  0.00  0.00    +0.000 C 
ATOM      6  C8  UNL     1      20.016  34.054  32.452  0.00  0.00    +0.000 C 
ATOM      7  C9  UNL     1      20.583  33.218  33.641  0.00  0.00    +0.000 C 
ATOM      8  C10 UNL     1      21.028  33.869  31.334  0.00  0.00    +0.000 C 
ATOM      9  C11 UNL     1      21.087  32.705  30.668  0.00  0.00    +0.000 C 
ATOM     10  C12 UNL     1      20.087  31.630  30.901  0.00  0.00    +0.000 C 
ATOM     11  O3  UNL     1      20.366  30.454  30.540  0.00  0.00    +0.000 OA
ATOM     12  C13 UNL     1      18.708  31.940  31.491  0.00  0.00    +0.000 C 
ATOM     13  C14 UNL     1      18.374  30.994  32.671  0.00  0.00    +0.000 C 
ATOM     14  C15 UNL     1      17.669  31.657  30.374  0.00  0.00    +0.000 C 
ATOM     15  C16 UNL     1      18.666  33.465  31.887  0.00  0.00    +0.000 C 
ATOM     16  C17 UNL     1      17.470  33.964  32.698  0.00  0.00    +0.000 C 
ATOM     17  C18 UNL     1      17.274  35.491  32.487  0.00  0.00    +0.000 C 
ATOM     18  C19 UNL     1      18.605  36.301  32.204  0.00  0.00    +0.000 C 
ATOM     19  C20 UNL     1      18.856  36.519  30.687  0.00  0.00    +0.000 C 
ATOM     20  O5  UNL     1      18.441  37.636  32.701  0.00  0.00    +0.000 OA
ATOM     21  C21 UNL     1      18.865  38.099  33.944  0.00  0.00    +0.000 A 
ATOM     22  C22 UNL     1      18.616  39.427  34.277  0.00  0.00    +0.000 A 
ATOM     23  C23 UNL     1      19.051  39.957  35.489  0.00  0.00    +0.000 A 
ATOM     24  C24 UNL     1      19.763  39.134  36.394  0.00  0.00    +0.000 A 
ATOM     25  C25 UNL     1      20.441  39.676  37.597  0.00  0.00    +0.000 C 
ATOM     26  O7  UNL     1      20.764  40.889  37.680  0.00  0.00    +0.000 OA
ATOM     27  O8  UNL     1      20.839  38.803  38.607  0.00  0.00    +0.000 OA
ATOM     28  C26 UNL     1      20.428  37.440  38.612  0.00  0.00    +0.000 C 
ATOM     29  C27 UNL     1      19.009  37.336  39.186  0.00  0.00    +0.000 C 
ENDROOT
BRANCH  17  30
ATOM     30  O4  UNL     1      16.617  35.998  33.624  0.00  0.00    +0.000 OA
ATOM     31  H23 UNL     1      15.673  36.172  33.365  0.00  0.00    +0.000 HD
ENDBRANCH  17  30
BRANCH  23  32
ATOM     32  O6  UNL     1      18.727  41.287  35.764  0.00  0.00    +0.000 OA
ATOM     33  H28 UNL     1      18.013  41.802  35.267  0.00  0.00    +0.000 HD
ENDBRANCH  23  32
BRANCH   1  34
ATOM     34  O2  UNL     1      19.942  35.544  37.174  0.00  0.00    +0.000 OA
BRANCH  34  36
ATOM     35  C1  UNL     1      21.835  33.920  37.090  0.00  0.00    +0.000 C 
ATOM     36  C2  UNL     1      20.559  34.400  37.692  0.00  0.00    +0.000 C 
ATOM     37  O1  UNL     1      20.055  33.775  38.663  0.00  0.00    +0.000 OA
ENDBRANCH  34  36
ENDBRANCH   1  34
TORSDOF 4
ENDMDL
MODEL 10
REMARK VINA RESULT:    -5.656     10.580     13.735
REMARK INTER + INTRA:          -7.243
REMARK INTER:                  -6.537
REMARK INTRA:                  -0.706
REMARK UNBOUND:                -0.595
REMARK  Name = CNP0176716_3.pdb
REMARK  10 active torsions:
REMARK  status: ('A' for Active; 'I' for Inactive)
REMARK    1  A    between atoms: C1_1  and  C2_2
REMARK    2  A    between atoms: C2_2  and  O2_4
REMARK    3  A    between atoms: O2_4  and  C3_5
REMARK    4  A    between atoms: C8_10  and  C9_11
REMARK    5  A    between atoms: C13_16  and  C14_17
REMARK    6  A    between atoms: C13_16  and  C15_18
REMARK    7  A    between atoms: C18_21  and  O4_22
REMARK    8  A    between atoms: C19_23  and  C20_24
REMARK    9  A    between atoms: C23_28  and  O6_29
REMARK   10  A    between atoms: C26_34  and  C27_35
REMARK                            x       y       z     vdW  Elec       q    Type
REMARK                         _______ _______ _______ _____ _____    ______ ____
ROOT
ATOM      1  C3  UNL     1      10.923  49.330  34.697  0.00  0.00    +0.000 C 
ATOM      2  C4  UNL     1      10.958  47.805  34.859  0.00  0.00    +0.000 A 
ATOM      3  C5  UNL     1      10.712  47.173  36.115  0.00  0.00    +0.000 A 
ATOM      4  C6  UNL     1      10.448  47.959  37.375  0.00  0.00    +0.000 C 
ATOM      5  C7  UNL     1      10.725  47.191  38.706  0.00  0.00    +0.000 C 
ATOM      6  C8  UNL     1      10.312  48.025  40.025  0.00  0.00    +0.000 C 
ATOM      7  C9  UNL     1      10.209  49.550  39.711  0.00  0.00    +0.000 C 
ATOM      8  C10 UNL     1      11.368  47.926  41.111  0.00  0.00    +0.000 C 
ATOM      9  C11 UNL     1      11.078  48.304  42.367  0.00  0.00    +0.000 C 
ATOM     10  C12 UNL     1       9.696  48.690  42.757  0.00  0.00    +0.000 C 
ATOM     11  O3  UNL     1       9.529  49.363  43.811  0.00  0.00    +0.000 OA
ATOM     12  C13 UNL     1       8.482  48.220  41.952  0.00  0.00    +0.000 C 
ATOM     13  C14 UNL     1       7.538  49.400  41.612  0.00  0.00    +0.000 C 
ATOM     14  C15 UNL     1       7.685  47.252  42.866  0.00  0.00    +0.000 C 
ATOM     15  C16 UNL     1       8.996  47.450  40.675  0.00  0.00    +0.000 C 
ATOM     16  C17 UNL     1       7.973  47.074  39.603  0.00  0.00    +0.000 C 
ATOM     17  C18 UNL     1       8.483  45.864  38.773  0.00  0.00    +0.000 C 
ATOM     18  C19 UNL     1      10.057  45.771  38.627  0.00  0.00    +0.000 C 
ATOM     19  C20 UNL     1      10.696  44.821  39.676  0.00  0.00    +0.000 C 
ATOM     20  O5  UNL     1      10.363  45.130  37.381  0.00  0.00    +0.000 OA
ATOM     21  C21 UNL     1      10.664  45.778  36.185  0.00  0.00    +0.000 A 
ATOM     22  C22 UNL     1      10.927  45.003  35.059  0.00  0.00    +0.000 A 
ATOM     23  C23 UNL     1      11.271  45.594  33.847  0.00  0.00    +0.000 A 
ATOM     24  C24 UNL     1      11.362  47.003  33.758  0.00  0.00    +0.000 A 
ATOM     25  C25 UNL     1      11.929  47.691  32.572  0.00  0.00    +0.000 C 
ATOM     26  O7  UNL     1      12.703  47.100  31.776  0.00  0.00    +0.000 OA
ATOM     27  O8  UNL     1      11.699  49.054  32.400  0.00  0.00    +0.000 OA
ATOM     28  C26 UNL     1      10.767  49.757  33.215  0.00  0.00    +0.000 C 
ATOM     29  C27 UNL     1       9.347  49.528  32.680  0.00  0.00    +0.000 C 
ENDROOT
BRANCH  17  30
ATOM     30  O4  UNL     1       7.870  45.926  37.507  0.00  0.00    +0.000 OA
ATOM     31  H23 UNL     1       7.148  45.244  37.496  0.00  0.00    +0.000 HD
ENDBRANCH  17  30
BRANCH  23  32
ATOM     32  O6  UNL     1      11.482  44.749  32.755  0.00  0.00    +0.000 OA
ATOM     33  H28 UNL     1      12.002  45.020  31.931  0.00  0.00    +0.000 HD
ENDBRANCH  23  32
BRANCH   1  34
ATOM     34  O2  UNL     1       9.855  49.894  35.461  0.00  0.00    +0.000 OA
BRANCH  34  36
ATOM     35  C1  UNL     1      11.062  51.680  36.720  0.00  0.00    +0.000 C 
ATOM     36  C2  UNL     1       9.868  51.198  35.968  0.00  0.00    +0.000 C 
ATOM     37  O1  UNL     1       8.889  51.971  35.793  0.00  0.00    +0.000 OA
ENDBRANCH  34  36
ENDBRANCH   1  34
TORSDOF 4
ENDMDL
