MODEL 1
REMARK VINA RESULT:    -7.902      0.000      0.000
REMARK INTER + INTRA:         -12.137
REMARK INTER:                 -11.135
REMARK INTRA:                  -1.002
REMARK UNBOUND:                -1.002
REMARK  Name = CNP0120079_2.pdb
REMARK  10 active torsions:
REMARK  status: ('A' for Active; 'I' for Inactive)
REMARK    1  A    between atoms: C1_1  and  C2_2
REMARK    2  A    between atoms: C5_5  and  S1_6
REMARK    3  A    between atoms: S1_6  and  N1_9
REMARK    4  A    between atoms: N1_9  and  C6_10
REMARK    5  A    between atoms: C6_10  and  C7_11
REMARK    6  A    between atoms: C6_10  and  C19_27
REMARK    7  A    between atoms: C7_11  and  O4_13
REMARK    8  A    between atoms: O4_13  and  C8_14
REMARK    9  A    between atoms: C12_18  and  C13_19
REMARK   10  A    between atoms: C17_25  and  C18_26
REMARK                            x       y       z     vdW  Elec       q    Type
REMARK                         _______ _______ _______ _____ _____    ______ ____
ROOT
ATOM      1  C6  UNL     1      20.081  32.101  37.692  0.00  0.00    +0.000 C 
ENDROOT
BRANCH   1   2
ATOM      2  C19 UNL     1      18.650  31.598  37.590  0.00  0.00    +0.000 A 
ATOM      3  C20 UNL     1      18.067  31.304  36.341  0.00  0.00    +0.000 A 
ATOM      4  C21 UNL     1      16.743  30.862  36.266  0.00  0.00    +0.000 A 
ATOM      5  C22 UNL     1      15.993  30.693  37.433  0.00  0.00    +0.000 A 
ATOM      6  C23 UNL     1      16.571  30.946  38.678  0.00  0.00    +0.000 A 
ATOM      7  C24 UNL     1      17.896  31.385  38.759  0.00  0.00    +0.000 A 
ENDBRANCH   1   2
BRANCH   1   8
ATOM      8  N1  UNL     1      20.533  32.259  39.089  0.00  0.00    +0.000 NA
ATOM      9  H6  UNL     1      19.896  31.770  39.757  0.00  0.00    +0.000 HD
BRANCH   8  10
ATOM     10  S1  UNL     1      22.145  31.651  39.328  0.00  0.00    +0.000 S 
ATOM     11  O1  UNL     1      22.757  31.345  37.990  0.00  0.00    +0.000 OA
ATOM     12  O2  UNL     1      22.083  30.376  40.124  0.00  0.00    +0.000 OA
BRANCH  10  17
ATOM     13  C1  UNL     1      25.667  35.565  42.356  0.00  0.00    +0.000 C 
ATOM     14  C2  UNL     1      24.789  34.653  41.551  0.00  0.00    +0.000 A 
ATOM     15  C3  UNL     1      25.347  33.809  40.579  0.00  0.00    +0.000 A 
ATOM     16  C4  UNL     1      24.534  32.913  39.872  0.00  0.00    +0.000 A 
ATOM     17  C5  UNL     1      23.162  32.830  40.154  0.00  0.00    +0.000 A 
ATOM     18  C25 UNL     1      22.604  33.676  41.124  0.00  0.00    +0.000 A 
ATOM     19  C26 UNL     1      23.412  34.579  41.823  0.00  0.00    +0.000 A 
ENDBRANCH  10  17
ENDBRANCH   8  10
ENDBRANCH   1   8
BRANCH   1  20
ATOM     20  C7  UNL     1      20.200  33.405  36.958  0.00  0.00    +0.000 C 
ATOM     21  O3  UNL     1      19.479  33.640  35.945  0.00  0.00    +0.000 OA
BRANCH  20  22
ATOM     22  O4  UNL     1      21.142  34.343  37.390  0.00  0.00    +0.000 OA
BRANCH  22  23
ATOM     23  C8  UNL     1      20.812  35.629  37.834  0.00  0.00    +0.000 A 
ATOM     24  C9  UNL     1      20.399  35.782  39.159  0.00  0.00    +0.000 A 
ATOM     25  C10 UNL     1      20.041  37.032  39.657  0.00  0.00    +0.000 A 
ATOM     26  C11 UNL     1      20.094  38.168  38.829  0.00  0.00    +0.000 A 
ATOM     27  C12 UNL     1      19.733  39.455  39.288  0.00  0.00    +0.000 A 
ATOM     28  C13 UNL     1      19.271  39.703  40.701  0.00  0.00    +0.000 C 
ATOM     29  C14 UNL     1      19.816  40.534  38.397  0.00  0.00    +0.000 A 
ATOM     30  C15 UNL     1      20.248  40.312  37.089  0.00  0.00    +0.000 A 
ATOM     31  O5  UNL     1      20.323  41.274  36.282  0.00  0.00    +0.000 OA
ATOM     32  O6  UNL     1      20.585  39.091  36.691  0.00  0.00    +0.000 OA
ATOM     33  C16 UNL     1      20.532  38.026  37.488  0.00  0.00    +0.000 A 
ATOM     34  C17 UNL     1      20.920  36.762  36.995  0.00  0.00    +0.000 A 
ATOM     35  C18 UNL     1      21.449  36.637  35.587  0.00  0.00    +0.000 C 
ENDBRANCH  22  23
ENDBRANCH  20  22
ENDBRANCH   1  20
TORSDOF 7
ENDMDL
MODEL 2
REMARK VINA RESULT:    -7.744      1.635      5.746
REMARK INTER + INTRA:         -11.914
REMARK INTER:                 -10.443
REMARK INTRA:                  -1.471
REMARK UNBOUND:                -1.002
REMARK  Name = CNP0120079_2.pdb
REMARK  10 active torsions:
REMARK  status: ('A' for Active; 'I' for Inactive)
REMARK    1  A    between atoms: C1_1  and  C2_2
REMARK    2  A    between atoms: C5_5  and  S1_6
REMARK    3  A    between atoms: S1_6  and  N1_9
REMARK    4  A    between atoms: N1_9  and  C6_10
REMARK    5  A    between atoms: C6_10  and  C7_11
REMARK    6  A    between atoms: C6_10  and  C19_27
REMARK    7  A    between atoms: C7_11  and  O4_13
REMARK    8  A    between atoms: O4_13  and  C8_14
REMARK    9  A    between atoms: C12_18  and  C13_19
REMARK   10  A    between atoms: C17_25  and  C18_26
REMARK                            x       y       z     vdW  Elec       q    Type
REMARK                         _______ _______ _______ _____ _____    ______ ____
ROOT
ATOM      1  C6  UNL     1      23.110  33.534  40.654  0.00  0.00    +0.000 C 
ENDROOT
BRANCH   1   2
ATOM      2  C19 UNL     1      24.354  34.392  40.816  0.00  0.00    +0.000 A 
ATOM      3  C20 UNL     1      24.862  34.710  42.092  0.00  0.00    +0.000 A 
ATOM      4  C21 UNL     1      25.996  35.517  42.220  0.00  0.00    +0.000 A 
ATOM      5  C22 UNL     1      26.644  36.002  41.081  0.00  0.00    +0.000 A 
ATOM      6  C23 UNL     1      26.172  35.664  39.811  0.00  0.00    +0.000 A 
ATOM      7  C24 UNL     1      25.041  34.854  39.676  0.00  0.00    +0.000 A 
ENDBRANCH   1   2
BRANCH   1   8
ATOM      8  N1  UNL     1      23.074  32.816  39.364  0.00  0.00    +0.000 NA
ATOM      9  H6  UNL     1      24.009  32.816  38.898  0.00  0.00    +0.000 HD
BRANCH   8  10
ATOM     10  S1  UNL     1      22.555  31.166  39.549  0.00  0.00    +0.000 S 
ATOM     11  O1  UNL     1      22.768  30.741  40.974  0.00  0.00    +0.000 OA
ATOM     12  O2  UNL     1      23.386  30.281  38.660  0.00  0.00    +0.000 OA
BRANCH  10  17
ATOM     13  C1  UNL     1      16.613  30.640  38.400  0.00  0.00    +0.000 C 
ATOM     14  C2  UNL     1      18.095  30.728  38.618  0.00  0.00    +0.000 A 
ATOM     15  C3  UNL     1      18.833  31.780  38.052  0.00  0.00    +0.000 A 
ATOM     16  C4  UNL     1      20.205  31.897  38.308  0.00  0.00    +0.000 A 
ATOM     17  C5  UNL     1      20.846  30.982  39.157  0.00  0.00    +0.000 A 
ATOM     18  C25 UNL     1      20.110  29.929  39.720  0.00  0.00    +0.000 A 
ATOM     19  C26 UNL     1      18.741  29.804  39.457  0.00  0.00    +0.000 A 
ENDBRANCH  10  17
ENDBRANCH   8  10
ENDBRANCH   1   8
BRANCH   1  20
ATOM     20  C7  UNL     1      21.891  34.399  40.800  0.00  0.00    +0.000 C 
ATOM     21  O3  UNL     1      21.566  34.866  41.931  0.00  0.00    +0.000 OA
BRANCH  20  22
ATOM     22  O4  UNL     1      21.103  34.654  39.675  0.00  0.00    +0.000 OA
BRANCH  22  23
ATOM     23  C8  UNL     1      20.936  35.926  39.114  0.00  0.00    +0.000 A 
ATOM     24  C9  UNL     1      20.149  36.850  39.803  0.00  0.00    +0.000 A 
ATOM     25  C10 UNL     1      19.930  38.127  39.290  0.00  0.00    +0.000 A 
ATOM     26  C11 UNL     1      20.505  38.508  38.065  0.00  0.00    +0.000 A 
ATOM     27  C12 UNL     1      20.306  39.790  37.503  0.00  0.00    +0.000 A 
ATOM     28  C13 UNL     1      19.465  40.841  38.180  0.00  0.00    +0.000 C 
ATOM     29  C14 UNL     1      20.917  40.088  36.277  0.00  0.00    +0.000 A 
ATOM     30  C15 UNL     1      21.701  39.121  35.648  0.00  0.00    +0.000 A 
ATOM     31  O5  UNL     1      22.251  39.379  34.546  0.00  0.00    +0.000 OA
ATOM     32  O6  UNL     1      21.873  37.928  36.206  0.00  0.00    +0.000 OA
ATOM     33  C16 UNL     1      21.324  37.583  37.368  0.00  0.00    +0.000 A 
ATOM     34  C17 UNL     1      21.565  36.300  37.905  0.00  0.00    +0.000 A 
ATOM     35  C18 UNL     1      22.493  35.351  37.186  0.00  0.00    +0.000 C 
ENDBRANCH  22  23
ENDBRANCH  20  22
ENDBRANCH   1  20
TORSDOF 7
ENDMDL
MODEL 3
REMARK VINA RESULT:    -7.729      8.826     12.146
REMARK INTER + INTRA:         -11.894
REMARK INTER:                  -8.771
REMARK INTRA:                  -3.123
REMARK UNBOUND:                -1.002
REMARK  Name = CNP0120079_2.pdb
REMARK  10 active torsions:
REMARK  status: ('A' for Active; 'I' for Inactive)
REMARK    1  A    between atoms: C1_1  and  C2_2
REMARK    2  A    between atoms: C5_5  and  S1_6
REMARK    3  A    between atoms: S1_6  and  N1_9
REMARK    4  A    between atoms: N1_9  and  C6_10
REMARK    5  A    between atoms: C6_10  and  C7_11
REMARK    6  A    between atoms: C6_10  and  C19_27
REMARK    7  A    between atoms: C7_11  and  O4_13
REMARK    8  A    between atoms: O4_13  and  C8_14
REMARK    9  A    between atoms: C12_18  and  C13_19
REMARK   10  A    between atoms: C17_25  and  C18_26
REMARK                            x       y       z     vdW  Elec       q    Type
REMARK                         _______ _______ _______ _____ _____    ______ ____
ROOT
ATOM      1  C6  UNL     1      30.522  39.185  35.069  0.00  0.00    +0.000 C 
ENDROOT
BRANCH   1   2
ATOM      2  C19 UNL     1      31.025  39.523  33.674  0.00  0.00    +0.000 A 
ATOM      3  C20 UNL     1      31.045  40.853  33.207  0.00  0.00    +0.000 A 
ATOM      4  C21 UNL     1      31.492  41.141  31.914  0.00  0.00    +0.000 A 
ATOM      5  C22 UNL     1      31.937  40.111  31.081  0.00  0.00    +0.000 A 
ATOM      6  C23 UNL     1      31.957  38.795  31.545  0.00  0.00    +0.000 A 
ATOM      7  C24 UNL     1      31.515  38.501  32.838  0.00  0.00    +0.000 A 
ENDBRANCH   1   2
BRANCH   1   8
ATOM      8  N1  UNL     1      31.585  39.255  36.092  0.00  0.00    +0.000 NA
ATOM      9  H6  UNL     1      32.510  39.490  35.669  0.00  0.00    +0.000 HD
BRANCH   8  10
ATOM     10  S1  UNL     1      31.231  40.434  37.322  0.00  0.00    +0.000 S 
ATOM     11  O1  UNL     1      29.949  41.135  36.976  0.00  0.00    +0.000 OA
ATOM     12  O2  UNL     1      32.335  41.456  37.363  0.00  0.00    +0.000 OA
BRANCH  10  17
ATOM     13  C1  UNL     1      30.730  38.004  42.866  0.00  0.00    +0.000 C 
ATOM     14  C2  UNL     1      30.816  38.541  41.468  0.00  0.00    +0.000 A 
ATOM     15  C3  UNL     1      29.781  39.333  40.948  0.00  0.00    +0.000 A 
ATOM     16  C4  UNL     1      29.890  39.886  39.666  0.00  0.00    +0.000 A 
ATOM     17  C5  UNL     1      31.049  39.678  38.904  0.00  0.00    +0.000 A 
ATOM     18  C25 UNL     1      32.084  38.884  39.421  0.00  0.00    +0.000 A 
ATOM     19  C26 UNL     1      31.971  38.322  40.699  0.00  0.00    +0.000 A 
ENDBRANCH  10  17
ENDBRANCH   8  10
ENDBRANCH   1   8
BRANCH   1  20
ATOM     20  C7  UNL     1      29.906  37.816  35.053  0.00  0.00    +0.000 C 
ATOM     21  O3  UNL     1      28.893  37.576  34.333  0.00  0.00    +0.000 OA
BRANCH  20  22
ATOM     22  O4  UNL     1      30.448  36.820  35.871  0.00  0.00    +0.000 OA
BRANCH  22  23
ATOM     23  C8  UNL     1      29.963  36.513  37.147  0.00  0.00    +0.000 A 
ATOM     24  C9  UNL     1      28.686  36.963  37.491  0.00  0.00    +0.000 A 
ATOM     25  C10 UNL     1      28.153  36.705  38.752  0.00  0.00    +0.000 A 
ATOM     26  C11 UNL     1      28.894  35.980  39.702  0.00  0.00    +0.000 A 
ATOM     27  C12 UNL     1      28.397  35.701  40.995  0.00  0.00    +0.000 A 
ATOM     28  C13 UNL     1      27.032  36.156  41.446  0.00  0.00    +0.000 C 
ATOM     29  C14 UNL     1      29.201  34.971  41.881  0.00  0.00    +0.000 A 
ATOM     30  C15 UNL     1      30.462  34.542  41.468  0.00  0.00    +0.000 A 
ATOM     31  O5  UNL     1      31.193  33.889  42.257  0.00  0.00    +0.000 OA
ATOM     32  O6  UNL     1      30.898  34.816  40.243  0.00  0.00    +0.000 OA
ATOM     33  C16 UNL     1      30.182  35.502  39.354  0.00  0.00    +0.000 A 
ATOM     34  C17 UNL     1      30.708  35.741  38.067  0.00  0.00    +0.000 A 
ATOM     35  C18 UNL     1      32.053  35.168  37.688  0.00  0.00    +0.000 C 
ENDBRANCH  22  23
ENDBRANCH  20  22
ENDBRANCH   1  20
TORSDOF 7
ENDMDL
MODEL 4
REMARK VINA RESULT:    -7.682      3.208      5.526
REMARK INTER + INTRA:         -11.828
REMARK INTER:                 -10.235
REMARK INTRA:                  -1.594
REMARK UNBOUND:                -1.002
REMARK  Name = CNP0120079_2.pdb
REMARK  10 active torsions:
REMARK  status: ('A' for Active; 'I' for Inactive)
REMARK    1  A    between atoms: C1_1  and  C2_2
REMARK    2  A    between atoms: C5_5  and  S1_6
REMARK    3  A    between atoms: S1_6  and  N1_9
REMARK    4  A    between atoms: N1_9  and  C6_10
REMARK    5  A    between atoms: C6_10  and  C7_11
REMARK    6  A    between atoms: C6_10  and  C19_27
REMARK    7  A    between atoms: C7_11  and  O4_13
REMARK    8  A    between atoms: O4_13  and  C8_14
REMARK    9  A    between atoms: C12_18  and  C13_19
REMARK   10  A    between atoms: C17_25  and  C18_26
REMARK                            x       y       z     vdW  Elec       q    Type
REMARK                         _______ _______ _______ _____ _____    ______ ____
ROOT
ATOM      1  C6  UNL     1      21.243  35.002  38.682  0.00  0.00    +0.000 C 
ENDROOT
BRANCH   1   2
ATOM      2  C19 UNL     1      20.884  36.479  38.732  0.00  0.00    +0.000 A 
ATOM      3  C20 UNL     1      21.726  37.455  38.161  0.00  0.00    +0.000 A 
ATOM      4  C21 UNL     1      21.388  38.809  38.235  0.00  0.00    +0.000 A 
ATOM      5  C22 UNL     1      20.203  39.203  38.862  0.00  0.00    +0.000 A 
ATOM      6  C23 UNL     1      19.344  38.243  39.398  0.00  0.00    +0.000 A 
ATOM      7  C24 UNL     1      19.674  36.887  39.325  0.00  0.00    +0.000 A 
ENDBRANCH   1   2
BRANCH   1   8
ATOM      8  N1  UNL     1      22.696  34.771  38.554  0.00  0.00    +0.000 NA
ATOM      9  H6  UNL     1      23.201  35.643  38.279  0.00  0.00    +0.000 HD
BRANCH   8  10
ATOM     10  S1  UNL     1      23.396  34.177  40.031  0.00  0.00    +0.000 S 
ATOM     11  O1  UNL     1      23.662  32.705  39.892  0.00  0.00    +0.000 OA
ATOM     12  O2  UNL     1      22.422  34.380  41.160  0.00  0.00    +0.000 OA
BRANCH  10  17
ATOM     13  C1  UNL     1      28.524  37.186  41.277  0.00  0.00    +0.000 C 
ATOM     14  C2  UNL     1      27.300  36.376  40.966  0.00  0.00    +0.000 A 
ATOM     15  C3  UNL     1      26.559  35.786  42.001  0.00  0.00    +0.000 A 
ATOM     16  C4  UNL     1      25.382  35.083  41.715  0.00  0.00    +0.000 A 
ATOM     17  C5  UNL     1      24.918  34.991  40.394  0.00  0.00    +0.000 A 
ATOM     18  C25 UNL     1      25.659  35.578  39.358  0.00  0.00    +0.000 A 
ATOM     19  C26 UNL     1      26.842  36.271  39.642  0.00  0.00    +0.000 A 
ENDBRANCH  10  17
ENDBRANCH   8  10
ENDBRANCH   1   8
BRANCH   1  20
ATOM     20  C7  UNL     1      20.512  34.355  37.542  0.00  0.00    +0.000 C 
ATOM     21  O3  UNL     1      19.747  33.368  37.747  0.00  0.00    +0.000 OA
BRANCH  20  22
ATOM     22  O4  UNL     1      20.715  34.836  36.246  0.00  0.00    +0.000 OA
BRANCH  22  23
ATOM     23  C8  UNL     1      19.704  35.396  35.457  0.00  0.00    +0.000 A 
ATOM     24  C9  UNL     1      19.436  36.759  35.602  0.00  0.00    +0.000 A 
ATOM     25  C10 UNL     1      18.431  37.373  34.859  0.00  0.00    +0.000 A 
ATOM     26  C11 UNL     1      17.669  36.627  33.942  0.00  0.00    +0.000 A 
ATOM     27  C12 UNL     1      16.635  37.206  33.171  0.00  0.00    +0.000 A 
ATOM     28  C13 UNL     1      16.279  38.667  33.275  0.00  0.00    +0.000 C 
ATOM     29  C14 UNL     1      15.924  36.390  32.280  0.00  0.00    +0.000 A 
ATOM     30  C15 UNL     1      16.252  35.039  32.176  0.00  0.00    +0.000 A 
ATOM     31  O5  UNL     1      15.618  34.298  31.381  0.00  0.00    +0.000 OA
ATOM     32  O6  UNL     1      17.234  34.527  32.911  0.00  0.00    +0.000 OA
ATOM     33  C16 UNL     1      17.948  35.247  33.773  0.00  0.00    +0.000 A 
ATOM     34  C17 UNL     1      18.985  34.635  34.508  0.00  0.00    +0.000 A 
ATOM     35  C18 UNL     1      19.316  33.181  34.267  0.00  0.00    +0.000 C 
ENDBRANCH  22  23
ENDBRANCH  20  22
ENDBRANCH   1  20
TORSDOF 7
ENDMDL
MODEL 5
REMARK VINA RESULT:    -7.642      3.484      5.513
REMARK INTER + INTRA:         -11.771
REMARK INTER:                 -10.217
REMARK INTRA:                  -1.554
REMARK UNBOUND:                -1.002
REMARK  Name = CNP0120079_2.pdb
REMARK  10 active torsions:
REMARK  status: ('A' for Active; 'I' for Inactive)
REMARK    1  A    between atoms: C1_1  and  C2_2
REMARK    2  A    between atoms: C5_5  and  S1_6
REMARK    3  A    between atoms: S1_6  and  N1_9
REMARK    4  A    between atoms: N1_9  and  C6_10
REMARK    5  A    between atoms: C6_10  and  C7_11
REMARK    6  A    between atoms: C6_10  and  C19_27
REMARK    7  A    between atoms: C7_11  and  O4_13
REMARK    8  A    between atoms: O4_13  and  C8_14
REMARK    9  A    between atoms: C12_18  and  C13_19
REMARK   10  A    between atoms: C17_25  and  C18_26
REMARK                            x       y       z     vdW  Elec       q    Type
REMARK                         _______ _______ _______ _____ _____    ______ ____
ROOT
ATOM      1  C6  UNL     1      20.359  35.949  37.138  0.00  0.00    +0.000 C 
ENDROOT
BRANCH   1   2
ATOM      2  C19 UNL     1      20.335  37.219  37.975  0.00  0.00    +0.000 A 
ATOM      3  C20 UNL     1      19.374  37.408  38.988  0.00  0.00    +0.000 A 
ATOM      4  C21 UNL     1      19.356  38.591  39.732  0.00  0.00    +0.000 A 
ATOM      5  C22 UNL     1      20.303  39.588  39.487  0.00  0.00    +0.000 A 
ATOM      6  C23 UNL     1      21.283  39.397  38.512  0.00  0.00    +0.000 A 
ATOM      7  C24 UNL     1      21.309  38.215  37.766  0.00  0.00    +0.000 A 
ENDBRANCH   1   2
BRANCH   1   8
ATOM      8  N1  UNL     1      21.673  35.276  37.158  0.00  0.00    +0.000 NA
ATOM      9  H6  UNL     1      22.447  35.949  37.354  0.00  0.00    +0.000 HD
BRANCH   8  10
ATOM     10  S1  UNL     1      21.739  34.008  38.348  0.00  0.00    +0.000 S 
ATOM     11  O1  UNL     1      22.094  32.716  37.670  0.00  0.00    +0.000 OA
ATOM     12  O2  UNL     1      20.385  33.854  38.987  0.00  0.00    +0.000 OA
BRANCH  10  17
ATOM     13  C1  UNL     1      25.870  35.404  42.577  0.00  0.00    +0.000 C 
ATOM     14  C2  UNL     1      24.873  34.984  41.538  0.00  0.00    +0.000 A 
ATOM     15  C3  UNL     1      23.590  34.561  41.917  0.00  0.00    +0.000 A 
ATOM     16  C4  UNL     1      22.639  34.229  40.944  0.00  0.00    +0.000 A 
ATOM     17  C5  UNL     1      22.953  34.347  39.581  0.00  0.00    +0.000 A 
ATOM     18  C25 UNL     1      24.236  34.766  39.201  0.00  0.00    +0.000 A 
ATOM     19  C26 UNL     1      25.191  35.088  40.173  0.00  0.00    +0.000 A 
ENDBRANCH  10  17
ENDBRANCH   8  10
ENDBRANCH   1   8
BRANCH   1  20
ATOM     20  C7  UNL     1      19.969  36.281  35.727  0.00  0.00    +0.000 C 
ATOM     21  O3  UNL     1      20.828  36.247  34.798  0.00  0.00    +0.000 OA
BRANCH  20  22
ATOM     22  O4  UNL     1      18.651  36.660  35.459  0.00  0.00    +0.000 OA
BRANCH  22  23
ATOM     23  C8  UNL     1      18.292  37.899  34.915  0.00  0.00    +0.000 A 
ATOM     24  C9  UNL     1      18.982  39.032  35.352  0.00  0.00    +0.000 A 
ATOM     25  C10 UNL     1      18.662  40.296  34.862  0.00  0.00    +0.000 A 
ATOM     26  C11 UNL     1      17.637  40.451  33.912  0.00  0.00    +0.000 A 
ATOM     27  C12 UNL     1      17.272  41.714  33.392  0.00  0.00    +0.000 A 
ATOM     28  C13 UNL     1      17.963  42.985  33.816  0.00  0.00    +0.000 C 
ATOM     29  C14 UNL     1      16.239  41.780  32.448  0.00  0.00    +0.000 A 
ATOM     30  C15 UNL     1      15.600  40.606  32.047  0.00  0.00    +0.000 A 
ATOM     31  O5  UNL     1      14.670  40.655  31.201  0.00  0.00    +0.000 OA
ATOM     32  O6  UNL     1      15.970  39.434  32.550  0.00  0.00    +0.000 OA
ATOM     33  C16 UNL     1      16.945  39.304  33.448  0.00  0.00    +0.000 A 
ATOM     34  C17 UNL     1      17.291  38.021  33.926  0.00  0.00    +0.000 A 
ATOM     35  C18 UNL     1      16.593  36.803  33.372  0.00  0.00    +0.000 C 
ENDBRANCH  22  23
ENDBRANCH  20  22
ENDBRANCH   1  20
TORSDOF 7
ENDMDL
MODEL 6
REMARK VINA RESULT:    -7.627      2.719      6.689
REMARK INTER + INTRA:         -11.750
REMARK INTER:                 -10.230
REMARK INTRA:                  -1.520
REMARK UNBOUND:                -1.002
REMARK  Name = CNP0120079_2.pdb
REMARK  10 active torsions:
REMARK  status: ('A' for Active; 'I' for Inactive)
REMARK    1  A    between atoms: C1_1  and  C2_2
REMARK    2  A    between atoms: C5_5  and  S1_6
REMARK    3  A    between atoms: S1_6  and  N1_9
REMARK    4  A    between atoms: N1_9  and  C6_10
REMARK    5  A    between atoms: C6_10  and  C7_11
REMARK    6  A    between atoms: C6_10  and  C19_27
REMARK    7  A    between atoms: C7_11  and  O4_13
REMARK    8  A    between atoms: O4_13  and  C8_14
REMARK    9  A    between atoms: C12_18  and  C13_19
REMARK   10  A    between atoms: C17_25  and  C18_26
REMARK                            x       y       z     vdW  Elec       q    Type
REMARK                         _______ _______ _______ _____ _____    ______ ____
ROOT
ATOM      1  C6  UNL     1      20.838  34.574  36.428  0.00  0.00    +0.000 C 
ENDROOT
BRANCH   1   2
ATOM      2  C19 UNL     1      20.257  35.634  37.351  0.00  0.00    +0.000 A 
ATOM      3  C20 UNL     1      20.430  35.561  38.747  0.00  0.00    +0.000 A 
ATOM      4  C21 UNL     1      19.872  36.534  39.581  0.00  0.00    +0.000 A 
ATOM      5  C22 UNL     1      19.150  37.597  39.031  0.00  0.00    +0.000 A 
ATOM      6  C23 UNL     1      19.003  37.701  37.647  0.00  0.00    +0.000 A 
ATOM      7  C24 UNL     1      19.563  36.733  36.809  0.00  0.00    +0.000 A 
ENDBRANCH   1   2
BRANCH   1   8
ATOM      8  N1  UNL     1      20.770  33.216  37.003  0.00  0.00    +0.000 NA
ATOM      9  H6  UNL     1      20.333  33.222  37.952  0.00  0.00    +0.000 HD
BRANCH   8  10
ATOM     10  S1  UNL     1      19.868  32.123  35.993  0.00  0.00    +0.000 S 
ATOM     11  O1  UNL     1      20.726  30.934  35.667  0.00  0.00    +0.000 OA
ATOM     12  O2  UNL     1      19.508  32.817  34.707  0.00  0.00    +0.000 OA
BRANCH  10  17
ATOM     13  C1  UNL     1      14.779  30.398  38.826  0.00  0.00    +0.000 C 
ATOM     14  C2  UNL     1      16.055  30.748  38.118  0.00  0.00    +0.000 A 
ATOM     15  C3  UNL     1      16.085  30.846  36.719  0.00  0.00    +0.000 A 
ATOM     16  C4  UNL     1      17.260  31.234  36.063  0.00  0.00    +0.000 A 
ATOM     17  C5  UNL     1      18.408  31.557  36.803  0.00  0.00    +0.000 A 
ATOM     18  C25 UNL     1      18.379  31.456  38.201  0.00  0.00    +0.000 A 
ATOM     19  C26 UNL     1      17.209  31.058  38.857  0.00  0.00    +0.000 A 
ENDBRANCH  10  17
ENDBRANCH   8  10
ENDBRANCH   1   8
BRANCH   1  20
ATOM     20  C7  UNL     1      22.260  34.929  36.102  0.00  0.00    +0.000 C 
ATOM     21  O3  UNL     1      22.519  35.885  35.314  0.00  0.00    +0.000 OA
BRANCH  20  22
ATOM     22  O4  UNL     1      23.292  34.166  36.655  0.00  0.00    +0.000 OA
BRANCH  22  23
ATOM     23  C8  UNL     1      24.023  34.551  37.785  0.00  0.00    +0.000 A 
ATOM     24  C9  UNL     1      23.525  34.198  39.041  0.00  0.00    +0.000 A 
ATOM     25  C10 UNL     1      24.196  34.565  40.205  0.00  0.00    +0.000 A 
ATOM     26  C11 UNL     1      25.395  35.297  40.133  0.00  0.00    +0.000 A 
ATOM     27  C12 UNL     1      26.107  35.697  41.287  0.00  0.00    +0.000 A 
ATOM     28  C13 UNL     1      25.633  35.362  42.678  0.00  0.00    +0.000 C 
ATOM     29  C14 UNL     1      27.294  36.424  41.125  0.00  0.00    +0.000 A 
ATOM     30  C15 UNL     1      27.740  36.733  39.841  0.00  0.00    +0.000 A 
ATOM     31  O5  UNL     1      28.804  37.387  39.686  0.00  0.00    +0.000 OA
ATOM     32  O6  UNL     1      27.051  36.337  38.776  0.00  0.00    +0.000 OA
ATOM     33  C16 UNL     1      25.919  35.642  38.862  0.00  0.00    +0.000 A 
ATOM     34  C17 UNL     1      25.250  35.244  37.684  0.00  0.00    +0.000 A 
ATOM     35  C18 UNL     1      25.855  35.559  36.337  0.00  0.00    +0.000 C 
ENDBRANCH  22  23
ENDBRANCH  20  22
ENDBRANCH   1  20
TORSDOF 7
ENDMDL
MODEL 7
REMARK VINA RESULT:    -7.617      5.183      8.703
REMARK INTER + INTRA:         -11.736
REMARK INTER:                  -9.089
REMARK INTRA:                  -2.647
REMARK UNBOUND:                -1.002
REMARK  Name = CNP0120079_2.pdb
REMARK  10 active torsions:
REMARK  status: ('A' for Active; 'I' for Inactive)
REMARK    1  A    between atoms: C1_1  and  C2_2
REMARK    2  A    between atoms: C5_5  and  S1_6
REMARK    3  A    between atoms: S1_6  and  N1_9
REMARK    4  A    between atoms: N1_9  and  C6_10
REMARK    5  A    between atoms: C6_10  and  C7_11
REMARK    6  A    between atoms: C6_10  and  C19_27
REMARK    7  A    between atoms: C7_11  and  O4_13
REMARK    8  A    between atoms: O4_13  and  C8_14
REMARK    9  A    between atoms: C12_18  and  C13_19
REMARK   10  A    between atoms: C17_25  and  C18_26
REMARK                            x       y       z     vdW  Elec       q    Type
REMARK                         _______ _______ _______ _____ _____    ______ ____
ROOT
ATOM      1  C6  UNL     1      20.195  38.491  35.712  0.00  0.00    +0.000 C 
ENDROOT
BRANCH   1   2
ATOM      2  C19 UNL     1      19.928  38.542  37.207  0.00  0.00    +0.000 A 
ATOM      3  C20 UNL     1      20.379  39.621  37.994  0.00  0.00    +0.000 A 
ATOM      4  C21 UNL     1      20.142  39.639  39.371  0.00  0.00    +0.000 A 
ATOM      5  C22 UNL     1      19.440  38.593  39.976  0.00  0.00    +0.000 A 
ATOM      6  C23 UNL     1      18.956  37.537  39.201  0.00  0.00    +0.000 A 
ATOM      7  C24 UNL     1      19.187  37.515  37.823  0.00  0.00    +0.000 A 
ENDBRANCH   1   2
BRANCH   1   8
ATOM      8  N1  UNL     1      20.699  37.177  35.265  0.00  0.00    +0.000 NA
ATOM      9  H6  UNL     1      20.443  36.419  35.936  0.00  0.00    +0.000 HD
BRANCH   8  10
ATOM     10  S1  UNL     1      20.090  36.743  33.694  0.00  0.00    +0.000 S 
ATOM     11  O1  UNL     1      19.690  35.296  33.705  0.00  0.00    +0.000 OA
ATOM     12  O2  UNL     1      21.177  36.929  32.670  0.00  0.00    +0.000 OA
BRANCH  10  17
ATOM     13  C1  UNL     1      15.220  39.956  32.003  0.00  0.00    +0.000 C 
ATOM     14  C2  UNL     1      16.429  39.210  32.483  0.00  0.00    +0.000 A 
ATOM     15  C3  UNL     1      16.290  38.130  33.369  0.00  0.00    +0.000 A 
ATOM     16  C4  UNL     1      17.413  37.394  33.768  0.00  0.00    +0.000 A 
ATOM     17  C5  UNL     1      18.682  37.712  33.261  0.00  0.00    +0.000 A 
ATOM     18  C25 UNL     1      18.823  38.793  32.378  0.00  0.00    +0.000 A 
ATOM     19  C26 UNL     1      17.703  39.536  31.987  0.00  0.00    +0.000 A 
ENDBRANCH  10  17
ENDBRANCH   8  10
ENDBRANCH   1   8
BRANCH   1  20
ATOM     20  C7  UNL     1      21.171  39.572  35.347  0.00  0.00    +0.000 C 
ATOM     21  O3  UNL     1      22.324  39.277  34.914  0.00  0.00    +0.000 OA
BRANCH  20  22
ATOM     22  O4  UNL     1      20.802  40.907  35.525  0.00  0.00    +0.000 OA
BRANCH  22  23
ATOM     23  C8  UNL     1      19.838  41.558  34.744  0.00  0.00    +0.000 A 
ATOM     24  C9  UNL     1      18.538  41.649  35.247  0.00  0.00    +0.000 A 
ATOM     25  C10 UNL     1      17.530  42.269  34.512  0.00  0.00    +0.000 A 
ATOM     26  C11 UNL     1      17.808  42.819  33.248  0.00  0.00    +0.000 A 
ATOM     27  C12 UNL     1      16.816  43.451  32.464  0.00  0.00    +0.000 A 
ATOM     28  C13 UNL     1      15.389  43.584  32.931  0.00  0.00    +0.000 C 
ATOM     29  C14 UNL     1      17.178  43.973  31.215  0.00  0.00    +0.000 A 
ATOM     30  C15 UNL     1      18.498  43.857  30.780  0.00  0.00    +0.000 A 
ATOM     31  O5  UNL     1      18.832  44.321  29.659  0.00  0.00    +0.000 OA
ATOM     32  O6  UNL     1      19.408  43.263  31.543  0.00  0.00    +0.000 OA
ATOM     33  C16 UNL     1      19.130  42.749  32.739  0.00  0.00    +0.000 A 
ATOM     34  C17 UNL     1      20.155  42.145  33.499  0.00  0.00    +0.000 A 
ATOM     35  C18 UNL     1      21.570  42.138  32.974  0.00  0.00    +0.000 C 
ENDBRANCH  22  23
ENDBRANCH  20  22
ENDBRANCH   1  20
TORSDOF 7
ENDMDL
MODEL 8
REMARK VINA RESULT:    -7.533      4.361      7.437
REMARK INTER + INTRA:         -11.617
REMARK INTER:                  -9.643
REMARK INTRA:                  -1.974
REMARK UNBOUND:                -1.002
REMARK  Name = CNP0120079_2.pdb
REMARK  10 active torsions:
REMARK  status: ('A' for Active; 'I' for Inactive)
REMARK    1  A    between atoms: C1_1  and  C2_2
REMARK    2  A    between atoms: C5_5  and  S1_6
REMARK    3  A    between atoms: S1_6  and  N1_9
REMARK    4  A    between atoms: N1_9  and  C6_10
REMARK    5  A    between atoms: C6_10  and  C7_11
REMARK    6  A    between atoms: C6_10  and  C19_27
REMARK    7  A    between atoms: C7_11  and  O4_13
REMARK    8  A    between atoms: O4_13  and  C8_14
REMARK    9  A    between atoms: C12_18  and  C13_19
REMARK   10  A    between atoms: C17_25  and  C18_26
REMARK                            x       y       z     vdW  Elec       q    Type
REMARK                         _______ _______ _______ _____ _____    ______ ____
ROOT
ATOM      1  C6  UNL     1      20.675  38.708  36.117  0.00  0.00    +0.000 C 
ENDROOT
BRANCH   1   2
ATOM      2  C19 UNL     1      20.240  39.072  37.528  0.00  0.00    +0.000 A 
ATOM      3  C20 UNL     1      20.222  40.412  37.964  0.00  0.00    +0.000 A 
ATOM      4  C21 UNL     1      19.839  40.725  39.271  0.00  0.00    +0.000 A 
ATOM      5  C22 UNL     1      19.456  39.709  40.151  0.00  0.00    +0.000 A 
ATOM      6  C23 UNL     1      19.434  38.382  39.720  0.00  0.00    +0.000 A 
ATOM      7  C24 UNL     1      19.813  38.064  38.413  0.00  0.00    +0.000 A 
ENDBRANCH   1   2
BRANCH   1   8
ATOM      8  N1  UNL     1      22.143  38.661  35.965  0.00  0.00    +0.000 NA
ATOM      9  H6  UNL     1      22.629  39.035  36.810  0.00  0.00    +0.000 HD
BRANCH   8  10
ATOM     10  S1  UNL     1      22.718  37.044  35.676  0.00  0.00    +0.000 S 
ATOM     11  O1  UNL     1      24.214  37.026  35.801  0.00  0.00    +0.000 OA
ATOM     12  O2  UNL     1      22.353  36.629  34.276  0.00  0.00    +0.000 OA
BRANCH  10  17
ATOM     13  C1  UNL     1      20.265  33.293  39.776  0.00  0.00    +0.000 C 
ATOM     14  C2  UNL     1      20.915  34.159  38.738  0.00  0.00    +0.000 A 
ATOM     15  C3  UNL     1      20.379  34.237  37.443  0.00  0.00    +0.000 A 
ATOM     16  C4  UNL     1      20.950  35.094  36.494  0.00  0.00    +0.000 A 
ATOM     17  C5  UNL     1      22.042  35.904  36.839  0.00  0.00    +0.000 A 
ATOM     18  C25 UNL     1      22.580  35.825  38.132  0.00  0.00    +0.000 A 
ATOM     19  C26 UNL     1      22.017  34.961  39.079  0.00  0.00    +0.000 A 
ENDBRANCH  10  17
ENDBRANCH   8  10
ENDBRANCH   1   8
BRANCH   1  20
ATOM     20  C7  UNL     1      20.085  39.693  35.150  0.00  0.00    +0.000 C 
ATOM     21  O3  UNL     1      20.835  40.456  34.472  0.00  0.00    +0.000 OA
BRANCH  20  22
ATOM     22  O4  UNL     1      18.696  39.780  35.033  0.00  0.00    +0.000 OA
BRANCH  22  23
ATOM     23  C8  UNL     1      17.966  39.205  33.985  0.00  0.00    +0.000 A 
ATOM     24  C9  UNL     1      17.700  39.990  32.862  0.00  0.00    +0.000 A 
ATOM     25  C10 UNL     1      16.964  39.483  31.793  0.00  0.00    +0.000 A 
ATOM     26  C11 UNL     1      16.479  38.164  31.828  0.00  0.00    +0.000 A 
ATOM     27  C12 UNL     1      15.723  37.608  30.770  0.00  0.00    +0.000 A 
ATOM     28  C13 UNL     1      15.387  38.392  29.527  0.00  0.00    +0.000 C 
ATOM     29  C14 UNL     1      15.278  36.285  30.885  0.00  0.00    +0.000 A 
ATOM     30  C15 UNL     1      15.590  35.553  32.031  0.00  0.00    +0.000 A 
ATOM     31  O5  UNL     1      15.193  34.365  32.145  0.00  0.00    +0.000 OA
ATOM     32  O6  UNL     1      16.308  36.102  33.005  0.00  0.00    +0.000 OA
ATOM     33  C16 UNL     1      16.762  37.353  32.955  0.00  0.00    +0.000 A 
ATOM     34  C17 UNL     1      17.531  37.861  34.024  0.00  0.00    +0.000 A 
ATOM     35  C18 UNL     1      17.882  36.965  35.187  0.00  0.00    +0.000 C 
ENDBRANCH  22  23
ENDBRANCH  20  22
ENDBRANCH   1  20
TORSDOF 7
ENDMDL
MODEL 9
REMARK VINA RESULT:    -7.530      7.992     12.073
REMARK INTER + INTRA:         -11.613
REMARK INTER:                  -9.654
REMARK INTRA:                  -1.959
REMARK UNBOUND:                -1.002
REMARK  Name = CNP0120079_2.pdb
REMARK  10 active torsions:
REMARK  status: ('A' for Active; 'I' for Inactive)
REMARK    1  A    between atoms: C1_1  and  C2_2
REMARK    2  A    between atoms: C5_5  and  S1_6
REMARK    3  A    between atoms: S1_6  and  N1_9
REMARK    4  A    between atoms: N1_9  and  C6_10
REMARK    5  A    between atoms: C6_10  and  C7_11
REMARK    6  A    between atoms: C6_10  and  C19_27
REMARK    7  A    between atoms: C7_11  and  O4_13
REMARK    8  A    between atoms: O4_13  and  C8_14
REMARK    9  A    between atoms: C12_18  and  C13_19
REMARK   10  A    between atoms: C17_25  and  C18_26
REMARK                            x       y       z     vdW  Elec       q    Type
REMARK                         _______ _______ _______ _____ _____    ______ ____
ROOT
ATOM      1  C6  UNL     1      31.502  38.600  38.471  0.00  0.00    +0.000 C 
ENDROOT
BRANCH   1   2
ATOM      2  C19 UNL     1      31.295  38.952  39.936  0.00  0.00    +0.000 A 
ATOM      3  C20 UNL     1      32.316  38.754  40.887  0.00  0.00    +0.000 A 
ATOM      4  C21 UNL     1      32.099  39.066  42.232  0.00  0.00    +0.000 A 
ATOM      5  C22 UNL     1      30.870  39.592  42.640  0.00  0.00    +0.000 A 
ATOM      6  C23 UNL     1      29.864  39.827  41.702  0.00  0.00    +0.000 A 
ATOM      7  C24 UNL     1      30.077  39.521  40.355  0.00  0.00    +0.000 A 
ENDBRANCH   1   2
BRANCH   1   8
ATOM      8  N1  UNL     1      30.424  39.111  37.601  0.00  0.00    +0.000 NA
ATOM      9  H6  UNL     1      29.566  39.344  38.150  0.00  0.00    +0.000 HD
BRANCH   8  10
ATOM     10  S1  UNL     1      30.912  40.532  36.723  0.00  0.00    +0.000 S 
ATOM     11  O1  UNL     1      32.203  41.044  37.296  0.00  0.00    +0.000 OA
ATOM     12  O2  UNL     1      29.864  41.599  36.881  0.00  0.00    +0.000 OA
BRANCH  10  17
ATOM     13  C1  UNL     1      31.980  39.395  30.852  0.00  0.00    +0.000 C 
ATOM     14  C2  UNL     1      31.642  39.651  32.291  0.00  0.00    +0.000 A 
ATOM     15  C3  UNL     1      31.785  38.631  33.245  0.00  0.00    +0.000 A 
ATOM     16  C4  UNL     1      31.529  38.889  34.597  0.00  0.00    +0.000 A 
ATOM     17  C5  UNL     1      31.159  40.177  35.014  0.00  0.00    +0.000 A 
ATOM     18  C25 UNL     1      31.013  41.196  34.061  0.00  0.00    +0.000 A 
ATOM     19  C26 UNL     1      31.258  40.937  32.707  0.00  0.00    +0.000 A 
ENDBRANCH  10  17
ENDBRANCH   8  10
ENDBRANCH   1   8
BRANCH   1  20
ATOM     20  C7  UNL     1      31.615  37.109  38.334  0.00  0.00    +0.000 C 
ATOM     21  O3  UNL     1      32.221  36.599  37.346  0.00  0.00    +0.000 OA
BRANCH  20  22
ATOM     22  O4  UNL     1      31.014  36.292  39.295  0.00  0.00    +0.000 OA
BRANCH  22  23
ATOM     23  C8  UNL     1      29.647  35.989  39.313  0.00  0.00    +0.000 A 
ATOM     24  C9  UNL     1      29.012  35.748  38.093  0.00  0.00    +0.000 A 
ATOM     25  C10 UNL     1      27.650  35.458  38.041  0.00  0.00    +0.000 A 
ATOM     26  C11 UNL     1      26.892  35.398  39.224  0.00  0.00    +0.000 A 
ATOM     27  C12 UNL     1      25.507  35.114  39.220  0.00  0.00    +0.000 A 
ATOM     28  C13 UNL     1      24.746  34.850  37.946  0.00  0.00    +0.000 C 
ATOM     29  C14 UNL     1      24.826  35.074  40.444  0.00  0.00    +0.000 A 
ATOM     30  C15 UNL     1      25.526  35.313  41.627  0.00  0.00    +0.000 A 
ATOM     31  O5  UNL     1      24.922  35.281  42.730  0.00  0.00    +0.000 OA
ATOM     32  O6  UNL     1      26.828  35.571  41.597  0.00  0.00    +0.000 OA
ATOM     33  C16 UNL     1      27.533  35.621  40.468  0.00  0.00    +0.000 A 
ATOM     34  C17 UNL     1      28.918  35.888  40.519  0.00  0.00    +0.000 A 
ATOM     35  C18 UNL     1      29.600  36.055  41.855  0.00  0.00    +0.000 C 
ENDBRANCH  22  23
ENDBRANCH  20  22
ENDBRANCH   1  20
TORSDOF 7
ENDMDL
MODEL 10
REMARK VINA RESULT:    -7.506      3.496      8.503
REMARK INTER + INTRA:         -11.580
REMARK INTER:                  -9.407
REMARK INTRA:                  -2.173
REMARK UNBOUND:                -1.002
REMARK  Name = CNP0120079_2.pdb
REMARK  10 active torsions:
REMARK  status: ('A' for Active; 'I' for Inactive)
REMARK    1  A    between atoms: C1_1  and  C2_2
REMARK    2  A    between atoms: C5_5  and  S1_6
REMARK    3  A    between atoms: S1_6  and  N1_9
REMARK    4  A    between atoms: N1_9  and  C6_10
REMARK    5  A    between atoms: C6_10  and  C7_11
REMARK    6  A    between atoms: C6_10  and  C19_27
REMARK    7  A    between atoms: C7_11  and  O4_13
REMARK    8  A    between atoms: O4_13  and  C8_14
REMARK    9  A    between atoms: C12_18  and  C13_19
REMARK   10  A    between atoms: C17_25  and  C18_26
REMARK                            x       y       z     vdW  Elec       q    Type
REMARK                         _______ _______ _______ _____ _____    ______ ____
ROOT
ATOM      1  C6  UNL     1      19.820  38.752  35.621  0.00  0.00    +0.000 C 
ENDROOT
BRANCH   1   2
ATOM      2  C19 UNL     1      19.740  38.737  37.139  0.00  0.00    +0.000 A 
ATOM      3  C20 UNL     1      20.354  39.741  37.914  0.00  0.00    +0.000 A 
ATOM      4  C21 UNL     1      20.286  39.698  39.309  0.00  0.00    +0.000 A 
ATOM      5  C22 UNL     1      19.593  38.665  39.946  0.00  0.00    +0.000 A 
ATOM      6  C23 UNL     1      18.949  37.685  39.189  0.00  0.00    +0.000 A 
ATOM      7  C24 UNL     1      19.010  37.725  37.793  0.00  0.00    +0.000 A 
ENDBRANCH   1   2
BRANCH   1   8
ATOM      8  N1  UNL     1      18.794  37.901  34.985  0.00  0.00    +0.000 NA
ATOM      9  H6  UNL     1      18.018  37.677  35.647  0.00  0.00    +0.000 HD
BRANCH   8  10
ATOM     10  S1  UNL     1      18.109  38.649  33.572  0.00  0.00    +0.000 S 
ATOM     11  O1  UNL     1      16.619  38.462  33.591  0.00  0.00    +0.000 OA
ATOM     12  O2  UNL     1      18.657  37.980  32.340  0.00  0.00    +0.000 OA
BRANCH  10  17
ATOM     13  C1  UNL     1      19.188  44.616  33.214  0.00  0.00    +0.000 C 
ATOM     14  C2  UNL     1      18.968  43.140  33.366  0.00  0.00    +0.000 A 
ATOM     15  C3  UNL     1      17.925  42.658  34.172  0.00  0.00    +0.000 A 
ATOM     16  C4  UNL     1      17.681  41.282  34.264  0.00  0.00    +0.000 A 
ATOM     17  C5  UNL     1      18.458  40.376  33.526  0.00  0.00    +0.000 A 
ATOM     18  C25 UNL     1      19.503  40.857  32.723  0.00  0.00    +0.000 A 
ATOM     19  C26 UNL     1      19.754  42.231  32.638  0.00  0.00    +0.000 A 
ENDBRANCH  10  17
ENDBRANCH   8  10
ENDBRANCH   1   8
BRANCH   1  20
ATOM     20  C7  UNL     1      21.192  38.316  35.195  0.00  0.00    +0.000 C 
ATOM     21  O3  UNL     1      22.047  39.167  34.813  0.00  0.00    +0.000 OA
BRANCH  20  22
ATOM     22  O4  UNL     1      21.500  36.953  35.195  0.00  0.00    +0.000 OA
BRANCH  22  23
ATOM     23  C8  UNL     1      21.664  36.192  36.358  0.00  0.00    +0.000 A 
ATOM     24  C9  UNL     1      22.583  36.637  37.311  0.00  0.00    +0.000 A 
ATOM     25  C10 UNL     1      22.804  35.916  38.482  0.00  0.00    +0.000 A 
ATOM     26  C11 UNL     1      22.098  34.725  38.727  0.00  0.00    +0.000 A 
ATOM     27  C12 UNL     1      22.295  33.956  39.897  0.00  0.00    +0.000 A 
ATOM     28  C13 UNL     1      23.272  34.364  40.969  0.00  0.00    +0.000 C 
ATOM     29  C14 UNL     1      21.549  32.782  40.062  0.00  0.00    +0.000 A 
ATOM     30  C15 UNL     1      20.639  32.402  39.076  0.00  0.00    +0.000 A 
ATOM     31  O5  UNL     1      19.967  31.347  39.214  0.00  0.00    +0.000 OA
ATOM     32  O6  UNL     1      20.474  33.149  37.990  0.00  0.00    +0.000 OA
ATOM     33  C16 UNL     1      21.148  34.276  37.775  0.00  0.00    +0.000 A 
ATOM     34  C17 UNL     1      20.907  35.024  36.602  0.00  0.00    +0.000 A 
ATOM     35  C18 UNL     1      19.844  34.570  35.630  0.00  0.00    +0.000 C 
ENDBRANCH  22  23
ENDBRANCH  20  22
ENDBRANCH   1  20
TORSDOF 7
ENDMDL
