MODEL 1
REMARK VINA RESULT:    -8.593      0.000      0.000
REMARK INTER + INTRA:         -13.226
REMARK INTER:                 -11.607
REMARK INTRA:                  -1.619
REMARK UNBOUND:                -1.619
REMARK  Name = CNP0022627_1.pdb
REMARK  6 active torsions:
REMARK  status: ('A' for Active; 'I' for Inactive)
REMARK    1  A    between atoms: C1_2  and  O2_14
REMARK    2  A    between atoms: N1_3  and  C2_4
REMARK    3  A    between atoms: O2_14  and  C12_15
REMARK    4  A    between atoms: C17_22  and  N2_23
REMARK    5  A    between atoms: N2_23  and  S1_24
REMARK    6  A    between atoms: S1_24  and  C18_27
REMARK                            x       y       z     vdW  Elec       q    Type
REMARK                         _______ _______ _______ _____ _____    ______ ____
ROOT
ATOM      1  C12 UNL     1      56.306  53.317  73.352  0.00  0.00    +0.000 C 
ATOM      2  C13 UNL     1      57.793  53.047  73.291  0.00  0.00    +0.000 C 
ATOM      3  O3  UNL     1      58.337  53.746  72.196  0.00  0.00    +0.000 OA
ATOM      4  C14 UNL     1      57.428  54.774  71.846  0.00  0.00    +0.000 C 
ATOM      5  C15 UNL     1      56.187  54.676  72.706  0.00  0.00    +0.000 C 
ATOM      6  O4  UNL     1      56.185  55.711  73.669  0.00  0.00    +0.000 OA
ATOM      7  C16 UNL     1      57.399  56.414  73.547  0.00  0.00    +0.000 C 
ATOM      8  C17 UNL     1      58.003  56.129  72.177  0.00  0.00    +0.000 C 
ENDROOT
BRANCH   8   9
ATOM      9  N2  UNL     1      57.575  57.110  71.163  0.00  0.00    +0.000 NA
ATOM     10  H17 UNL     1      57.258  57.999  71.614  0.00  0.00    +0.000 HD
BRANCH   9  11
ATOM     11  S1  UNL     1      58.871  57.485  70.063  0.00  0.00    +0.000 S 
ATOM     12  O5  UNL     1      58.936  56.429  68.996  0.00  0.00    +0.000 OA
ATOM     13  O6  UNL     1      58.630  58.816  69.405  0.00  0.00    +0.000 OA
BRANCH  11  14
ATOM     14  C18 UNL     1      60.398  57.508  70.941  0.00  0.00    +0.000 A 
ATOM     15  C19 UNL     1      61.030  58.731  71.196  0.00  0.00    +0.000 A 
ATOM     16  C20 UNL     1      62.257  58.768  71.864  0.00  0.00    +0.000 A 
ATOM     17  C21 UNL     1      62.867  57.578  72.283  0.00  0.00    +0.000 A 
ATOM     18  C22 UNL     1      64.102  57.602  72.952  0.00  0.00    +0.000 A 
ATOM     19  C23 UNL     1      64.702  56.407  73.359  0.00  0.00    +0.000 A 
ATOM     20  C24 UNL     1      64.077  55.183  73.104  0.00  0.00    +0.000 A 
ATOM     21  C25 UNL     1      62.848  55.144  72.440  0.00  0.00    +0.000 A 
ATOM     22  C26 UNL     1      62.234  56.338  72.024  0.00  0.00    +0.000 A 
ATOM     23  C27 UNL     1      61.001  56.312  71.353  0.00  0.00    +0.000 A 
ENDBRANCH  11  14
ENDBRANCH   9  11
ENDBRANCH   8   9
BRANCH   1  24
ATOM     24  O2  UNL     1      55.843  53.305  74.703  0.00  0.00    +0.000 OA
BRANCH  24  26
ATOM     25  O1  UNL     1      56.784  51.983  76.347  0.00  0.00    +0.000 OA
ATOM     26  C1  UNL     1      56.690  53.117  75.799  0.00  0.00    +0.000 C 
ATOM     27  N1  UNL     1      57.432  54.232  76.307  0.00  0.00    +0.000 N 
ATOM     28  H1  UNL     1      57.217  55.176  75.915  0.00  0.00    +0.000 HD
BRANCH  27  29
ATOM     29  C2  UNL     1      58.431  54.113  77.334  0.00  0.00    +0.000 A 
ATOM     30  C3  UNL     1      58.060  54.265  78.681  0.00  0.00    +0.000 A 
ATOM     31  C4  UNL     1      58.994  54.098  79.702  0.00  0.00    +0.000 A 
ATOM     32  C5  UNL     1      60.315  53.770  79.400  0.00  0.00    +0.000 A 
ATOM     33  C6  UNL     1      60.714  53.610  78.066  0.00  0.00    +0.000 A 
ATOM     34  C7  UNL     1      62.046  53.282  77.765  0.00  0.00    +0.000 A 
ATOM     35  C8  UNL     1      62.452  53.135  76.437  0.00  0.00    +0.000 A 
ATOM     36  C9  UNL     1      61.536  53.320  75.401  0.00  0.00    +0.000 A 
ATOM     37  C10 UNL     1      60.207  53.645  75.683  0.00  0.00    +0.000 A 
ATOM     38  C11 UNL     1      59.772  53.784  77.017  0.00  0.00    +0.000 A 
ENDBRANCH  27  29
ENDBRANCH  24  26
ENDBRANCH   1  24
TORSDOF 6
ENDMDL
