
MODEL 4
REMARK VINA RESULT:    -7.861      7.293     11.029
REMARK INTER + INTRA:         -12.238
REMARK INTER:                 -11.269
REMARK INTRA:                  -0.969
REMARK UNBOUND:                -1.619
REMARK  Name = CNP0022627_1.pdb
REMARK  6 active torsions:
REMARK  status: ('A' for Active; 'I' for Inactive)
REMARK    1  A    between atoms: C1_2  and  O2_14
REMARK    2  A    between atoms: N1_3  and  C2_4
REMARK    3  A    between atoms: O2_14  and  C12_15
REMARK    4  A    between atoms: C17_22  and  N2_23
REMARK    5  A    between atoms: N2_23  and  S1_24
REMARK    6  A    between atoms: S1_24  and  C18_27
REMARK                            x       y       z     vdW  Elec       q    Type
REMARK                         _______ _______ _______ _____ _____    ______ ____
ROOT
ATOM      1  C12 UNL     1      57.600  54.223  65.514  0.00  0.00    +0.000 C 
ATOM      2  C13 UNL     1      58.017  55.632  65.152  0.00  0.00    +0.000 C 
ATOM      3  O3  UNL     1      57.821  56.464  66.271  0.00  0.00    +0.000 OA
ATOM      4  C14 UNL     1      57.753  55.638  67.418  0.00  0.00    +0.000 C 
ATOM      5  C15 UNL     1      57.820  54.183  67.007  0.00  0.00    +0.000 C 
ATOM      6  O4  UNL     1      59.089  53.649  67.331  0.00  0.00    +0.000 OA
ATOM      7  C16 UNL     1      59.880  54.697  67.839  0.00  0.00    +0.000 C 
ATOM      8  C17 UNL     1      58.969  55.833  68.289  0.00  0.00    +0.000 C 
ENDROOT
BRANCH   8   9
ATOM      9  N2  UNL     1      58.587  55.715  69.708  0.00  0.00    +0.000 NA
ATOM     10  H17 UNL     1      59.182  55.006  70.196  0.00  0.00    +0.000 HD
BRANCH   9  11
ATOM     11  S1  UNL     1      58.759  57.236  70.535  0.00  0.00    +0.000 S 
ATOM     12  O5  UNL     1      58.579  58.359  69.552  0.00  0.00    +0.000 OA
ATOM     13  O6  UNL     1      57.713  57.370  71.608  0.00  0.00    +0.000 OA
BRANCH  11  14
ATOM     14  C18 UNL     1      60.370  57.343  71.240  0.00  0.00    +0.000 A 
ATOM     15  C19 UNL     1      61.078  58.550  71.167  0.00  0.00    +0.000 A 
ATOM     16  C20 UNL     1      62.368  58.646  71.693  0.00  0.00    +0.000 A 
ATOM     17  C21 UNL     1      62.968  57.532  72.297  0.00  0.00    +0.000 A 
ATOM     18  C22 UNL     1      64.266  57.616  72.826  0.00  0.00    +0.000 A 
ATOM     19  C23 UNL     1      64.854  56.497  73.421  0.00  0.00    +0.000 A 
ATOM     20  C24 UNL     1      64.153  55.289  73.494  0.00  0.00    +0.000 A 
ATOM     21  C25 UNL     1      62.861  55.192  72.972  0.00  0.00    +0.000 A 
ATOM     22  C26 UNL     1      62.258  56.309  72.370  0.00  0.00    +0.000 A 
ATOM     23  C27 UNL     1      60.961  56.223  71.840  0.00  0.00    +0.000 A 
ENDBRANCH  11  14
ENDBRANCH   9  11
ENDBRANCH   8   9
BRANCH   1  24
ATOM     24  O2  UNL     1      58.392  53.263  64.813  0.00  0.00    +0.000 OA
BRANCH  24  26
ATOM     25  O1  UNL     1      57.275  52.221  63.080  0.00  0.00    +0.000 OA
ATOM     26  C1  UNL     1      58.217  52.973  63.456  0.00  0.00    +0.000 C 
ATOM     27  N1  UNL     1      59.134  53.520  62.502  0.00  0.00    +0.000 N 
ATOM     28  H1  UNL     1      59.976  54.017  62.868  0.00  0.00    +0.000 HD
BRANCH  27  29
ATOM     29  C2  UNL     1      58.960  53.398  61.080  0.00  0.00    +0.000 A 
ATOM     30  C3  UNL     1      59.557  52.324  60.399  0.00  0.00    +0.000 A 
ATOM     31  C4  UNL     1      59.357  52.147  59.031  0.00  0.00    +0.000 A 
ATOM     32  C5  UNL     1      58.554  53.033  58.316  0.00  0.00    +0.000 A 
ATOM     33  C6  UNL     1      57.943  54.113  58.968  0.00  0.00    +0.000 A 
ATOM     34  C7  UNL     1      57.136  55.007  58.245  0.00  0.00    +0.000 A 
ATOM     35  C8  UNL     1      56.537  56.092  58.888  0.00  0.00    +0.000 A 
ATOM     36  C9  UNL     1      56.743  56.299  60.252  0.00  0.00    +0.000 A 
ATOM     37  C10 UNL     1      57.541  55.418  60.986  0.00  0.00    +0.000 A 
ATOM     38  C11 UNL     1      58.144  54.307  60.362  0.00  0.00    +0.000 A 
ENDBRANCH  27  29
ENDBRANCH  24  26
ENDBRANCH   1  24
TORSDOF 6
ENDMDL
