MODEL 1
REMARK VINA RESULT:    -8.593      0.000      0.000
REMARK INTER + INTRA:         -13.226
REMARK INTER:                 -11.607
REMARK INTRA:                  -1.619
REMARK UNBOUND:                -1.619
REMARK  Name = CNP0022627_1.pdb
REMARK  6 active torsions:
REMARK  status: ('A' for Active; 'I' for Inactive)
REMARK    1  A    between atoms: C1_2  and  O2_14
REMARK    2  A    between atoms: N1_3  and  C2_4
REMARK    3  A    between atoms: O2_14  and  C12_15
REMARK    4  A    between atoms: C17_22  and  N2_23
REMARK    5  A    between atoms: N2_23  and  S1_24
REMARK    6  A    between atoms: S1_24  and  C18_27
REMARK                            x       y       z     vdW  Elec       q    Type
REMARK                         _______ _______ _______ _____ _____    ______ ____
ROOT
ATOM      1  C12 UNL     1      56.306  53.317  73.352  0.00  0.00    +0.000 C 
ATOM      2  C13 UNL     1      57.793  53.047  73.291  0.00  0.00    +0.000 C 
ATOM      3  O3  UNL     1      58.337  53.746  72.196  0.00  0.00    +0.000 OA
ATOM      4  C14 UNL     1      57.428  54.774  71.846  0.00  0.00    +0.000 C 
ATOM      5  C15 UNL     1      56.187  54.676  72.706  0.00  0.00    +0.000 C 
ATOM      6  O4  UNL     1      56.185  55.711  73.669  0.00  0.00    +0.000 OA
ATOM      7  C16 UNL     1      57.399  56.414  73.547  0.00  0.00    +0.000 C 
ATOM      8  C17 UNL     1      58.003  56.129  72.177  0.00  0.00    +0.000 C 
ENDROOT
BRANCH   8   9
ATOM      9  N2  UNL     1      57.575  57.110  71.163  0.00  0.00    +0.000 NA
ATOM     10  H17 UNL     1      57.258  57.999  71.614  0.00  0.00    +0.000 HD
BRANCH   9  11
ATOM     11  S1  UNL     1      58.871  57.485  70.063  0.00  0.00    +0.000 S 
ATOM     12  O5  UNL     1      58.936  56.429  68.996  0.00  0.00    +0.000 OA
ATOM     13  O6  UNL     1      58.630  58.816  69.405  0.00  0.00    +0.000 OA
BRANCH  11  14
ATOM     14  C18 UNL     1      60.398  57.508  70.941  0.00  0.00    +0.000 A 
ATOM     15  C19 UNL     1      61.030  58.731  71.196  0.00  0.00    +0.000 A 
ATOM     16  C20 UNL     1      62.257  58.768  71.864  0.00  0.00    +0.000 A 
ATOM     17  C21 UNL     1      62.867  57.578  72.283  0.00  0.00    +0.000 A 
ATOM     18  C22 UNL     1      64.102  57.602  72.952  0.00  0.00    +0.000 A 
ATOM     19  C23 UNL     1      64.702  56.407  73.359  0.00  0.00    +0.000 A 
ATOM     20  C24 UNL     1      64.077  55.183  73.104  0.00  0.00    +0.000 A 
ATOM     21  C25 UNL     1      62.848  55.144  72.440  0.00  0.00    +0.000 A 
ATOM     22  C26 UNL     1      62.234  56.338  72.024  0.00  0.00    +0.000 A 
ATOM     23  C27 UNL     1      61.001  56.312  71.353  0.00  0.00    +0.000 A 
ENDBRANCH  11  14
ENDBRANCH   9  11
ENDBRANCH   8   9
BRANCH   1  24
ATOM     24  O2  UNL     1      55.843  53.305  74.703  0.00  0.00    +0.000 OA
BRANCH  24  26
ATOM     25  O1  UNL     1      56.784  51.983  76.347  0.00  0.00    +0.000 OA
ATOM     26  C1  UNL     1      56.690  53.117  75.799  0.00  0.00    +0.000 C 
ATOM     27  N1  UNL     1      57.432  54.232  76.307  0.00  0.00    +0.000 N 
ATOM     28  H1  UNL     1      57.217  55.176  75.915  0.00  0.00    +0.000 HD
BRANCH  27  29
ATOM     29  C2  UNL     1      58.431  54.113  77.334  0.00  0.00    +0.000 A 
ATOM     30  C3  UNL     1      58.060  54.265  78.681  0.00  0.00    +0.000 A 
ATOM     31  C4  UNL     1      58.994  54.098  79.702  0.00  0.00    +0.000 A 
ATOM     32  C5  UNL     1      60.315  53.770  79.400  0.00  0.00    +0.000 A 
ATOM     33  C6  UNL     1      60.714  53.610  78.066  0.00  0.00    +0.000 A 
ATOM     34  C7  UNL     1      62.046  53.282  77.765  0.00  0.00    +0.000 A 
ATOM     35  C8  UNL     1      62.452  53.135  76.437  0.00  0.00    +0.000 A 
ATOM     36  C9  UNL     1      61.536  53.320  75.401  0.00  0.00    +0.000 A 
ATOM     37  C10 UNL     1      60.207  53.645  75.683  0.00  0.00    +0.000 A 
ATOM     38  C11 UNL     1      59.772  53.784  77.017  0.00  0.00    +0.000 A 
ENDBRANCH  27  29
ENDBRANCH  24  26
ENDBRANCH   1  24
TORSDOF 6
ENDMDL
MODEL 2
REMARK VINA RESULT:    -8.512      0.597      1.982
REMARK INTER + INTRA:         -13.117
REMARK INTER:                 -11.912
REMARK INTRA:                  -1.205
REMARK UNBOUND:                -1.619
REMARK  Name = CNP0022627_1.pdb
REMARK  6 active torsions:
REMARK  status: ('A' for Active; 'I' for Inactive)
REMARK    1  A    between atoms: C1_2  and  O2_14
REMARK    2  A    between atoms: N1_3  and  C2_4
REMARK    3  A    between atoms: O2_14  and  C12_15
REMARK    4  A    between atoms: C17_22  and  N2_23
REMARK    5  A    between atoms: N2_23  and  S1_24
REMARK    6  A    between atoms: S1_24  and  C18_27
REMARK                            x       y       z     vdW  Elec       q    Type
REMARK                         _______ _______ _______ _____ _____    ______ ____
ROOT
ATOM      1  C12 UNL     1      55.998  53.546  73.309  0.00  0.00    +0.000 C 
ATOM      2  C13 UNL     1      57.341  52.945  72.956  0.00  0.00    +0.000 C 
ATOM      3  O3  UNL     1      57.823  53.567  71.788  0.00  0.00    +0.000 OA
ATOM      4  C14 UNL     1      57.137  54.795  71.638  0.00  0.00    +0.000 C 
ATOM      5  C15 UNL     1      56.088  54.933  72.721  0.00  0.00    +0.000 C 
ATOM      6  O4  UNL     1      56.511  55.879  73.683  0.00  0.00    +0.000 OA
ATOM      7  C16 UNL     1      57.813  56.290  73.339  0.00  0.00    +0.000 C 
ATOM      8  C17 UNL     1      58.068  55.959  71.873  0.00  0.00    +0.000 C 
ENDROOT
BRANCH   8   9
ATOM      9  N2  UNL     1      57.706  57.072  70.977  0.00  0.00    +0.000 NA
ATOM     10  H17 UNL     1      57.448  57.924  71.527  0.00  0.00    +0.000 HD
BRANCH   9  11
ATOM     11  S1  UNL     1      59.024  57.483  69.918  0.00  0.00    +0.000 S 
ATOM     12  O5  UNL     1      59.136  56.442  68.840  0.00  0.00    +0.000 OA
ATOM     13  O6  UNL     1      58.778  58.817  69.269  0.00  0.00    +0.000 OA
BRANCH  11  14
ATOM     14  C18 UNL     1      60.526  57.520  70.837  0.00  0.00    +0.000 A 
ATOM     15  C19 UNL     1      61.132  58.751  71.121  0.00  0.00    +0.000 A 
ATOM     16  C20 UNL     1      62.339  58.801  71.823  0.00  0.00    +0.000 A 
ATOM     17  C21 UNL     1      62.957  57.616  72.246  0.00  0.00    +0.000 A 
ATOM     18  C22 UNL     1      64.172  57.652  72.948  0.00  0.00    +0.000 A 
ATOM     19  C23 UNL     1      64.780  56.463  73.361  0.00  0.00    +0.000 A 
ATOM     20  C24 UNL     1      64.182  55.232  73.078  0.00  0.00    +0.000 A 
ATOM     21  C25 UNL     1      62.972  55.181  72.379  0.00  0.00    +0.000 A 
ATOM     22  C26 UNL     1      62.351  56.369  71.958  0.00  0.00    +0.000 A 
ATOM     23  C27 UNL     1      61.137  56.330  71.254  0.00  0.00    +0.000 A 
ENDBRANCH  11  14
ENDBRANCH   9  11
ENDBRANCH   8   9
BRANCH   1  24
ATOM     24  O2  UNL     1      55.803  53.557  74.724  0.00  0.00    +0.000 OA
BRANCH  24  26
ATOM     25  O1  UNL     1      56.908  52.020  76.047  0.00  0.00    +0.000 OA
ATOM     26  C1  UNL     1      56.805  53.209  75.635  0.00  0.00    +0.000 C 
ATOM     27  N1  UNL     1      57.696  54.223  76.114  0.00  0.00    +0.000 N 
ATOM     28  H1  UNL     1      57.485  55.213  75.858  0.00  0.00    +0.000 HD
BRANCH  27  29
ATOM     29  C2  UNL     1      58.839  53.943  76.939  0.00  0.00    +0.000 A 
ATOM     30  C3  UNL     1      60.020  53.466  76.346  0.00  0.00    +0.000 A 
ATOM     31  C4  UNL     1      61.163  53.242  77.113  0.00  0.00    +0.000 A 
ATOM     32  C5  UNL     1      61.152  53.494  78.483  0.00  0.00    +0.000 A 
ATOM     33  C6  UNL     1      59.989  53.972  79.103  0.00  0.00    +0.000 A 
ATOM     34  C7  UNL     1      59.981  54.223  80.484  0.00  0.00    +0.000 A 
ATOM     35  C8  UNL     1      58.821  54.687  81.108  0.00  0.00    +0.000 A 
ATOM     36  C9  UNL     1      57.660  54.896  80.362  0.00  0.00    +0.000 A 
ATOM     37  C10 UNL     1      57.653  54.653  78.986  0.00  0.00    +0.000 A 
ATOM     38  C11 UNL     1      58.817  54.199  78.333  0.00  0.00    +0.000 A 
ENDBRANCH  27  29
ENDBRANCH  24  26
ENDBRANCH   1  24
TORSDOF 6
ENDMDL
MODEL 3
REMARK VINA RESULT:    -8.286      2.053      6.900
REMARK INTER + INTRA:         -12.811
REMARK INTER:                 -11.920
REMARK INTRA:                  -0.891
REMARK UNBOUND:                -1.619
REMARK  Name = CNP0022627_1.pdb
REMARK  6 active torsions:
REMARK  status: ('A' for Active; 'I' for Inactive)
REMARK    1  A    between atoms: C1_2  and  O2_14
REMARK    2  A    between atoms: N1_3  and  C2_4
REMARK    3  A    between atoms: O2_14  and  C12_15
REMARK    4  A    between atoms: C17_22  and  N2_23
REMARK    5  A    between atoms: N2_23  and  S1_24
REMARK    6  A    between atoms: S1_24  and  C18_27
REMARK                            x       y       z     vdW  Elec       q    Type
REMARK                         _______ _______ _______ _____ _____    ______ ____
ROOT
ATOM      1  C12 UNL     1      57.344  53.838  70.980  0.00  0.00    +0.000 C 
ATOM      2  C13 UNL     1      57.001  55.285  71.256  0.00  0.00    +0.000 C 
ATOM      3  O3  UNL     1      56.191  55.348  72.406  0.00  0.00    +0.000 OA
ATOM      4  C14 UNL     1      56.368  54.143  73.126  0.00  0.00    +0.000 C 
ATOM      5  C15 UNL     1      57.275  53.212  72.352  0.00  0.00    +0.000 C 
ATOM      6  O4  UNL     1      58.549  53.161  72.964  0.00  0.00    +0.000 OA
ATOM      7  C16 UNL     1      58.550  54.079  74.032  0.00  0.00    +0.000 C 
ATOM      8  C17 UNL     1      57.109  54.396  74.415  0.00  0.00    +0.000 C 
ENDROOT
BRANCH   8   9
ATOM      9  N2  UNL     1      56.599  53.496  75.465  0.00  0.00    +0.000 NA
ATOM     10  H17 UNL     1      57.327  52.798  75.744  0.00  0.00    +0.000 HD
BRANCH   9  11
ATOM     11  S1  UNL     1      56.123  54.386  76.882  0.00  0.00    +0.000 S 
ATOM     12  O5  UNL     1      55.880  55.821  76.508  0.00  0.00    +0.000 OA
ATOM     13  O6  UNL     1      54.852  53.821  77.454  0.00  0.00    +0.000 OA
BRANCH  11  14
ATOM     14  C18 UNL     1      57.412  54.317  78.080  0.00  0.00    +0.000 A 
ATOM     15  C19 UNL     1      57.154  54.717  79.398  0.00  0.00    +0.000 A 
ATOM     16  C20 UNL     1      58.170  54.697  80.356  0.00  0.00    +0.000 A 
ATOM     17  C21 UNL     1      59.461  54.280  80.004  0.00  0.00    +0.000 A 
ATOM     18  C22 UNL     1      60.493  54.260  80.957  0.00  0.00    +0.000 A 
ATOM     19  C23 UNL     1      61.777  53.845  80.592  0.00  0.00    +0.000 A 
ATOM     20  C24 UNL     1      62.041  53.448  79.278  0.00  0.00    +0.000 A 
ATOM     21  C25 UNL     1      61.024  53.463  78.320  0.00  0.00    +0.000 A 
ATOM     22  C26 UNL     1      59.729  53.878  78.673  0.00  0.00    +0.000 A 
ATOM     23  C27 UNL     1      58.700  53.900  77.719  0.00  0.00    +0.000 A 
ENDBRANCH  11  14
ENDBRANCH   9  11
ENDBRANCH   8   9
BRANCH   1  24
ATOM     24  O2  UNL     1      58.638  53.727  70.386  0.00  0.00    +0.000 OA
BRANCH  24  26
ATOM     25  O1  UNL     1      59.784  55.336  69.189  0.00  0.00    +0.000 OA
ATOM     26  C1  UNL     1      59.534  54.797  70.303  0.00  0.00    +0.000 C 
ATOM     27  N1  UNL     1      60.184  55.257  71.493  0.00  0.00    +0.000 N 
ATOM     28  H1  UNL     1      60.057  54.693  72.364  0.00  0.00    +0.000 HD
BRANCH  27  29
ATOM     29  C2  UNL     1      61.010  56.433  71.538  0.00  0.00    +0.000 A 
ATOM     30  C3  UNL     1      60.522  57.641  71.013  0.00  0.00    +0.000 A 
ATOM     31  C4  UNL     1      61.277  58.811  71.094  0.00  0.00    +0.000 A 
ATOM     32  C5  UNL     1      62.529  58.799  71.706  0.00  0.00    +0.000 A 
ATOM     33  C6  UNL     1      63.041  57.609  72.241  0.00  0.00    +0.000 A 
ATOM     34  C7  UNL     1      64.304  57.600  72.854  0.00  0.00    +0.000 A 
ATOM     35  C8  UNL     1      64.824  56.414  73.376  0.00  0.00    +0.000 A 
ATOM     36  C9  UNL     1      64.094  55.229  73.284  0.00  0.00    +0.000 A 
ATOM     37  C10 UNL     1      62.835  55.221  72.678  0.00  0.00    +0.000 A 
ATOM     38  C11 UNL     1      62.283  56.410  72.158  0.00  0.00    +0.000 A 
ENDBRANCH  27  29
ENDBRANCH  24  26
ENDBRANCH   1  24
TORSDOF 6
ENDMDL
MODEL 4
REMARK VINA RESULT:    -7.861      7.293     11.029
REMARK INTER + INTRA:         -12.238
REMARK INTER:                 -11.269
REMARK INTRA:                  -0.969
REMARK UNBOUND:                -1.619
REMARK  Name = CNP0022627_1.pdb
REMARK  6 active torsions:
REMARK  status: ('A' for Active; 'I' for Inactive)
REMARK    1  A    between atoms: C1_2  and  O2_14
REMARK    2  A    between atoms: N1_3  and  C2_4
REMARK    3  A    between atoms: O2_14  and  C12_15
REMARK    4  A    between atoms: C17_22  and  N2_23
REMARK    5  A    between atoms: N2_23  and  S1_24
REMARK    6  A    between atoms: S1_24  and  C18_27
REMARK                            x       y       z     vdW  Elec       q    Type
REMARK                         _______ _______ _______ _____ _____    ______ ____
ROOT
ATOM      1  C12 UNL     1      57.600  54.223  65.514  0.00  0.00    +0.000 C 
ATOM      2  C13 UNL     1      58.017  55.632  65.152  0.00  0.00    +0.000 C 
ATOM      3  O3  UNL     1      57.821  56.464  66.271  0.00  0.00    +0.000 OA
ATOM      4  C14 UNL     1      57.753  55.638  67.418  0.00  0.00    +0.000 C 
ATOM      5  C15 UNL     1      57.820  54.183  67.007  0.00  0.00    +0.000 C 
ATOM      6  O4  UNL     1      59.089  53.649  67.331  0.00  0.00    +0.000 OA
ATOM      7  C16 UNL     1      59.880  54.697  67.839  0.00  0.00    +0.000 C 
ATOM      8  C17 UNL     1      58.969  55.833  68.289  0.00  0.00    +0.000 C 
ENDROOT
BRANCH   8   9
ATOM      9  N2  UNL     1      58.587  55.715  69.708  0.00  0.00    +0.000 NA
ATOM     10  H17 UNL     1      59.182  55.006  70.196  0.00  0.00    +0.000 HD
BRANCH   9  11
ATOM     11  S1  UNL     1      58.759  57.236  70.535  0.00  0.00    +0.000 S 
ATOM     12  O5  UNL     1      58.579  58.359  69.552  0.00  0.00    +0.000 OA
ATOM     13  O6  UNL     1      57.713  57.370  71.608  0.00  0.00    +0.000 OA
BRANCH  11  14
ATOM     14  C18 UNL     1      60.370  57.343  71.240  0.00  0.00    +0.000 A 
ATOM     15  C19 UNL     1      61.078  58.550  71.167  0.00  0.00    +0.000 A 
ATOM     16  C20 UNL     1      62.368  58.646  71.693  0.00  0.00    +0.000 A 
ATOM     17  C21 UNL     1      62.968  57.532  72.297  0.00  0.00    +0.000 A 
ATOM     18  C22 UNL     1      64.266  57.616  72.826  0.00  0.00    +0.000 A 
ATOM     19  C23 UNL     1      64.854  56.497  73.421  0.00  0.00    +0.000 A 
ATOM     20  C24 UNL     1      64.153  55.289  73.494  0.00  0.00    +0.000 A 
ATOM     21  C25 UNL     1      62.861  55.192  72.972  0.00  0.00    +0.000 A 
ATOM     22  C26 UNL     1      62.258  56.309  72.370  0.00  0.00    +0.000 A 
ATOM     23  C27 UNL     1      60.961  56.223  71.840  0.00  0.00    +0.000 A 
ENDBRANCH  11  14
ENDBRANCH   9  11
ENDBRANCH   8   9
BRANCH   1  24
ATOM     24  O2  UNL     1      58.392  53.263  64.813  0.00  0.00    +0.000 OA
BRANCH  24  26
ATOM     25  O1  UNL     1      57.275  52.221  63.080  0.00  0.00    +0.000 OA
ATOM     26  C1  UNL     1      58.217  52.973  63.456  0.00  0.00    +0.000 C 
ATOM     27  N1  UNL     1      59.134  53.520  62.502  0.00  0.00    +0.000 N 
ATOM     28  H1  UNL     1      59.976  54.017  62.868  0.00  0.00    +0.000 HD
BRANCH  27  29
ATOM     29  C2  UNL     1      58.960  53.398  61.080  0.00  0.00    +0.000 A 
ATOM     30  C3  UNL     1      59.557  52.324  60.399  0.00  0.00    +0.000 A 
ATOM     31  C4  UNL     1      59.357  52.147  59.031  0.00  0.00    +0.000 A 
ATOM     32  C5  UNL     1      58.554  53.033  58.316  0.00  0.00    +0.000 A 
ATOM     33  C6  UNL     1      57.943  54.113  58.968  0.00  0.00    +0.000 A 
ATOM     34  C7  UNL     1      57.136  55.007  58.245  0.00  0.00    +0.000 A 
ATOM     35  C8  UNL     1      56.537  56.092  58.888  0.00  0.00    +0.000 A 
ATOM     36  C9  UNL     1      56.743  56.299  60.252  0.00  0.00    +0.000 A 
ATOM     37  C10 UNL     1      57.541  55.418  60.986  0.00  0.00    +0.000 A 
ATOM     38  C11 UNL     1      58.144  54.307  60.362  0.00  0.00    +0.000 A 
ENDBRANCH  27  29
ENDBRANCH  24  26
ENDBRANCH   1  24
TORSDOF 6
ENDMDL
MODEL 5
REMARK VINA RESULT:    -7.548      6.851      9.960
REMARK INTER + INTRA:         -11.815
REMARK INTER:                 -10.887
REMARK INTRA:                  -0.928
REMARK UNBOUND:                -1.619
REMARK  Name = CNP0022627_1.pdb
REMARK  6 active torsions:
REMARK  status: ('A' for Active; 'I' for Inactive)
REMARK    1  A    between atoms: C1_2  and  O2_14
REMARK    2  A    between atoms: N1_3  and  C2_4
REMARK    3  A    between atoms: O2_14  and  C12_15
REMARK    4  A    between atoms: C17_22  and  N2_23
REMARK    5  A    between atoms: N2_23  and  S1_24
REMARK    6  A    between atoms: S1_24  and  C18_27
REMARK                            x       y       z     vdW  Elec       q    Type
REMARK                         _______ _______ _______ _____ _____    ______ ____
ROOT
ATOM      1  C12 UNL     1      55.007  52.488  67.224  0.00  0.00    +0.000 C 
ATOM      2  C13 UNL     1      56.151  52.077  66.322  0.00  0.00    +0.000 C 
ATOM      3  O3  UNL     1      57.202  53.002  66.473  0.00  0.00    +0.000 OA
ATOM      4  C14 UNL     1      57.007  53.681  67.699  0.00  0.00    +0.000 C 
ATOM      5  C15 UNL     1      55.708  53.233  68.333  0.00  0.00    +0.000 C 
ATOM      6  O4  UNL     1      55.977  52.390  69.437  0.00  0.00    +0.000 OA
ATOM      7  C16 UNL     1      57.368  52.188  69.495  0.00  0.00    +0.000 C 
ATOM      8  C17 UNL     1      58.064  53.288  68.701  0.00  0.00    +0.000 C 
ENDROOT
BRANCH   8   9
ATOM      9  N2  UNL     1      58.409  54.450  69.540  0.00  0.00    +0.000 NA
ATOM     10  H17 UNL     1      58.800  54.142  70.461  0.00  0.00    +0.000 HD
BRANCH   9  11
ATOM     11  S1  UNL     1      59.586  55.465  68.757  0.00  0.00    +0.000 S 
ATOM     12  O5  UNL     1      60.321  54.663  67.721  0.00  0.00    +0.000 OA
ATOM     13  O6  UNL     1      58.908  56.621  68.074  0.00  0.00    +0.000 OA
BRANCH  11  14
ATOM     14  C18 UNL     1      60.739  56.055  69.950  0.00  0.00    +0.000 A 
ATOM     15  C19 UNL     1      60.876  57.433  70.158  0.00  0.00    +0.000 A 
ATOM     16  C20 UNL     1      61.806  57.922  71.078  0.00  0.00    +0.000 A 
ATOM     17  C21 UNL     1      62.616  57.035  71.800  0.00  0.00    +0.000 A 
ATOM     18  C22 UNL     1      63.558  57.514  72.725  0.00  0.00    +0.000 A 
ATOM     19  C23 UNL     1      64.362  56.618  73.435  0.00  0.00    +0.000 A 
ATOM     20  C24 UNL     1      64.232  55.241  73.230  0.00  0.00    +0.000 A 
ATOM     21  C25 UNL     1      63.299  54.751  72.313  0.00  0.00    +0.000 A 
ATOM     22  C26 UNL     1      62.485  55.640  71.592  0.00  0.00    +0.000 A 
ATOM     23  C27 UNL     1      61.546  55.159  70.666  0.00  0.00    +0.000 A 
ENDBRANCH  11  14
ENDBRANCH   9  11
ENDBRANCH   8   9
BRANCH   1  24
ATOM     24  O2  UNL     1      54.293  51.343  67.692  0.00  0.00    +0.000 OA
BRANCH  24  26
ATOM     25  O1  UNL     1      52.917  49.622  66.997  0.00  0.00    +0.000 OA
ATOM     26  C1  UNL     1      53.132  50.863  67.077  0.00  0.00    +0.000 C 
ATOM     27  N1  UNL     1      52.201  51.798  66.518  0.00  0.00    +0.000 N 
ATOM     28  H1  UNL     1      52.486  52.802  66.481  0.00  0.00    +0.000 HD
BRANCH  27  29
ATOM     29  C2  UNL     1      50.918  51.416  65.993  0.00  0.00    +0.000 A 
ATOM     30  C3  UNL     1      49.816  51.324  66.859  0.00  0.00    +0.000 A 
ATOM     31  C4  UNL     1      48.548  51.013  66.369  0.00  0.00    +0.000 A 
ATOM     32  C5  UNL     1      48.354  50.796  65.006  0.00  0.00    +0.000 A 
ATOM     33  C6  UNL     1      49.435  50.882  64.118  0.00  0.00    +0.000 A 
ATOM     34  C7  UNL     1      49.237  50.659  62.746  0.00  0.00    +0.000 A 
ATOM     35  C8  UNL     1      50.312  50.732  61.859  0.00  0.00    +0.000 A 
ATOM     36  C9  UNL     1      51.593  51.019  62.332  0.00  0.00    +0.000 A 
ATOM     37  C10 UNL     1      51.807  51.245  63.694  0.00  0.00    +0.000 A 
ATOM     38  C11 UNL     1      50.733  51.192  64.606  0.00  0.00    +0.000 A 
ENDBRANCH  27  29
ENDBRANCH  24  26
ENDBRANCH   1  24
TORSDOF 6
ENDMDL
MODEL 6
REMARK VINA RESULT:    -7.498      8.249     11.998
REMARK INTER + INTRA:         -11.747
REMARK INTER:                 -10.664
REMARK INTRA:                  -1.083
REMARK UNBOUND:                -1.619
REMARK  Name = CNP0022627_1.pdb
REMARK  6 active torsions:
REMARK  status: ('A' for Active; 'I' for Inactive)
REMARK    1  A    between atoms: C1_2  and  O2_14
REMARK    2  A    between atoms: N1_3  and  C2_4
REMARK    3  A    between atoms: O2_14  and  C12_15
REMARK    4  A    between atoms: C17_22  and  N2_23
REMARK    5  A    between atoms: N2_23  and  S1_24
REMARK    6  A    between atoms: S1_24  and  C18_27
REMARK                            x       y       z     vdW  Elec       q    Type
REMARK                         _______ _______ _______ _____ _____    ______ ____
ROOT
ATOM      1  C12 UNL     1      56.022  51.099  67.820  0.00  0.00    +0.000 C 
ATOM      2  C13 UNL     1      56.396  51.998  66.663  0.00  0.00    +0.000 C 
ATOM      3  O3  UNL     1      55.966  51.397  65.464  0.00  0.00    +0.000 OA
ATOM      4  C14 UNL     1      54.972  50.445  65.791  0.00  0.00    +0.000 C 
ATOM      5  C15 UNL     1      54.814  50.363  67.293  0.00  0.00    +0.000 C 
ATOM      6  O4  UNL     1      53.610  50.991  67.686  0.00  0.00    +0.000 OA
ATOM      7  C16 UNL     1      53.027  51.561  66.539  0.00  0.00    +0.000 C 
ATOM      8  C17 UNL     1      53.618  50.897  65.300  0.00  0.00    +0.000 C 
ENDROOT
BRANCH   8   9
ATOM      9  N2  UNL     1      52.834  49.729  64.863  0.00  0.00    +0.000 NA
ATOM     10  H17 UNL     1      52.345  49.283  65.674  0.00  0.00    +0.000 HD
BRANCH   9  11
ATOM     11  S1  UNL     1      51.637  50.179  63.682  0.00  0.00    +0.000 S 
ATOM     12  O5  UNL     1      51.895  51.588  63.228  0.00  0.00    +0.000 OA
ATOM     13  O6  UNL     1      51.714  49.270  62.486  0.00  0.00    +0.000 OA
BRANCH  11  14
ATOM     14  C18 UNL     1      50.035  50.094  64.408  0.00  0.00    +0.000 A 
ATOM     15  C19 UNL     1      48.910  50.424  63.641  0.00  0.00    +0.000 A 
ATOM     16  C20 UNL     1      47.633  50.392  64.207  0.00  0.00    +0.000 A 
ATOM     17  C21 UNL     1      47.467  50.031  65.551  0.00  0.00    +0.000 A 
ATOM     18  C22 UNL     1      46.189  49.999  66.132  0.00  0.00    +0.000 A 
ATOM     19  C23 UNL     1      46.038  49.642  67.475  0.00  0.00    +0.000 A 
ATOM     20  C24 UNL     1      47.157  49.314  68.246  0.00  0.00    +0.000 A 
ATOM     21  C25 UNL     1      48.435  49.342  67.681  0.00  0.00    +0.000 A 
ATOM     22  C26 UNL     1      48.601  49.700  66.332  0.00  0.00    +0.000 A 
ATOM     23  C27 UNL     1      49.879  49.734  65.754  0.00  0.00    +0.000 A 
ENDBRANCH  11  14
ENDBRANCH   9  11
ENDBRANCH   8   9
BRANCH   1  24
ATOM     24  O2  UNL     1      55.733  51.868  68.988  0.00  0.00    +0.000 OA
BRANCH  24  26
ATOM     25  O1  UNL     1      57.747  52.645  69.814  0.00  0.00    +0.000 OA
ATOM     26  C1  UNL     1      56.564  52.895  69.451  0.00  0.00    +0.000 C 
ATOM     27  N1  UNL     1      56.046  54.228  69.531  0.00  0.00    +0.000 N 
ATOM     28  H1  UNL     1      55.025  54.363  69.356  0.00  0.00    +0.000 HD
BRANCH  27  29
ATOM     29  C2  UNL     1      56.856  55.370  69.857  0.00  0.00    +0.000 A 
ATOM     30  C3  UNL     1      56.938  55.801  71.192  0.00  0.00    +0.000 A 
ATOM     31  C4  UNL     1      57.761  56.869  71.547  0.00  0.00    +0.000 A 
ATOM     32  C5  UNL     1      58.521  57.524  70.580  0.00  0.00    +0.000 A 
ATOM     33  C6  UNL     1      58.461  57.116  69.240  0.00  0.00    +0.000 A 
ATOM     34  C7  UNL     1      59.226  57.780  68.267  0.00  0.00    +0.000 A 
ATOM     35  C8  UNL     1      59.158  57.385  66.930  0.00  0.00    +0.000 A 
ATOM     36  C9  UNL     1      58.325  56.333  66.551  0.00  0.00    +0.000 A 
ATOM     37  C10 UNL     1      57.558  55.661  67.507  0.00  0.00    +0.000 A 
ATOM     38  C11 UNL     1      57.621  56.032  68.865  0.00  0.00    +0.000 A 
ENDBRANCH  27  29
ENDBRANCH  24  26
ENDBRANCH   1  24
TORSDOF 6
ENDMDL
MODEL 7
REMARK VINA RESULT:    -7.449      2.710      7.759
REMARK INTER + INTRA:         -11.681
REMARK INTER:                 -10.441
REMARK INTRA:                  -1.239
REMARK UNBOUND:                -1.619
REMARK  Name = CNP0022627_1.pdb
REMARK  6 active torsions:
REMARK  status: ('A' for Active; 'I' for Inactive)
REMARK    1  A    between atoms: C1_2  and  O2_14
REMARK    2  A    between atoms: N1_3  and  C2_4
REMARK    3  A    between atoms: O2_14  and  C12_15
REMARK    4  A    between atoms: C17_22  and  N2_23
REMARK    5  A    between atoms: N2_23  and  S1_24
REMARK    6  A    between atoms: S1_24  and  C18_27
REMARK                            x       y       z     vdW  Elec       q    Type
REMARK                         _______ _______ _______ _____ _____    ______ ____
ROOT
ATOM      1  C12 UNL     1      56.839  53.471  73.216  0.00  0.00    +0.000 C 
ATOM      2  C13 UNL     1      57.201  54.820  73.797  0.00  0.00    +0.000 C 
ATOM      3  O3  UNL     1      57.924  54.620  74.989  0.00  0.00    +0.000 OA
ATOM      4  C14 UNL     1      58.435  53.301  74.969  0.00  0.00    +0.000 C 
ATOM      5  C15 UNL     1      57.938  52.577  73.736  0.00  0.00    +0.000 C 
ATOM      6  O4  UNL     1      58.990  52.447  72.799  0.00  0.00    +0.000 OA
ATOM      7  C16 UNL     1      60.110  53.128  73.311  0.00  0.00    +0.000 C 
ATOM      8  C17 UNL     1      59.935  53.312  74.814  0.00  0.00    +0.000 C 
ENDROOT
BRANCH   8   9
ATOM      9  N2  UNL     1      60.522  52.200  75.585  0.00  0.00    +0.000 NA
ATOM     10  H17 UNL     1      60.804  51.416  74.952  0.00  0.00    +0.000 HD
BRANCH   9  11
ATOM     11  S1  UNL     1      61.925  52.720  76.473  0.00  0.00    +0.000 S 
ATOM     12  O5  UNL     1      62.869  51.561  76.630  0.00  0.00    +0.000 OA
ATOM     13  O6  UNL     1      62.636  53.818  75.731  0.00  0.00    +0.000 OA
BRANCH  11  14
ATOM     14  C18 UNL     1      61.436  53.282  78.068  0.00  0.00    +0.000 A 
ATOM     15  C19 UNL     1      62.354  53.245  79.126  0.00  0.00    +0.000 A 
ATOM     16  C20 UNL     1      61.977  53.658  80.406  0.00  0.00    +0.000 A 
ATOM     17  C21 UNL     1      60.672  54.111  80.643  0.00  0.00    +0.000 A 
ATOM     18  C22 UNL     1      60.279  54.525  81.927  0.00  0.00    +0.000 A 
ATOM     19  C23 UNL     1      58.974  54.970  82.151  0.00  0.00    +0.000 A 
ATOM     20  C24 UNL     1      58.052  55.006  81.101  0.00  0.00    +0.000 A 
ATOM     21  C25 UNL     1      58.429  54.597  79.819  0.00  0.00    +0.000 A 
ATOM     22  C26 UNL     1      59.738  54.147  79.579  0.00  0.00    +0.000 A 
ATOM     23  C27 UNL     1      60.128  53.731  78.297  0.00  0.00    +0.000 A 
ENDBRANCH  11  14
ENDBRANCH   9  11
ENDBRANCH   8   9
BRANCH   1  24
ATOM     24  O2  UNL     1      56.801  53.526  71.789  0.00  0.00    +0.000 OA
BRANCH  24  26
ATOM     25  O1  UNL     1      56.202  55.567  70.885  0.00  0.00    +0.000 OA
ATOM     26  C1  UNL     1      57.090  54.686  71.063  0.00  0.00    +0.000 C 
ATOM     27  N1  UNL     1      58.397  54.851  70.501  0.00  0.00    +0.000 N 
ATOM     28  H1  UNL     1      59.052  54.038  70.552  0.00  0.00    +0.000 HD
BRANCH  27  29
ATOM     29  C2  UNL     1      58.835  56.061  69.862  0.00  0.00    +0.000 A 
ATOM     30  C3  UNL     1      58.440  56.327  68.540  0.00  0.00    +0.000 A 
ATOM     31  C4  UNL     1      58.800  57.520  67.914  0.00  0.00    +0.000 A 
ATOM     32  C5  UNL     1      59.555  58.472  68.595  0.00  0.00    +0.000 A 
ATOM     33  C6  UNL     1      59.963  58.236  69.915  0.00  0.00    +0.000 A 
ATOM     34  C7  UNL     1      60.727  59.196  70.598  0.00  0.00    +0.000 A 
ATOM     35  C8  UNL     1      61.146  58.959  71.909  0.00  0.00    +0.000 A 
ATOM     36  C9  UNL     1      60.815  57.762  72.545  0.00  0.00    +0.000 A 
ATOM     37  C10 UNL     1      60.054  56.797  71.880  0.00  0.00    +0.000 A 
ATOM     38  C11 UNL     1      59.607  57.021  70.562  0.00  0.00    +0.000 A 
ENDBRANCH  27  29
ENDBRANCH  24  26
ENDBRANCH   1  24
TORSDOF 6
ENDMDL
MODEL 8
REMARK VINA RESULT:    -7.430      8.277     12.086
REMARK INTER + INTRA:         -11.655
REMARK INTER:                 -10.791
REMARK INTRA:                  -0.864
REMARK UNBOUND:                -1.619
REMARK  Name = CNP0022627_1.pdb
REMARK  6 active torsions:
REMARK  status: ('A' for Active; 'I' for Inactive)
REMARK    1  A    between atoms: C1_2  and  O2_14
REMARK    2  A    between atoms: N1_3  and  C2_4
REMARK    3  A    between atoms: O2_14  and  C12_15
REMARK    4  A    between atoms: C17_22  and  N2_23
REMARK    5  A    between atoms: N2_23  and  S1_24
REMARK    6  A    between atoms: S1_24  and  C18_27
REMARK                            x       y       z     vdW  Elec       q    Type
REMARK                         _______ _______ _______ _____ _____    ______ ____
ROOT
ATOM      1  C12 UNL     1      59.091  53.918  64.224  0.00  0.00    +0.000 C 
ATOM      2  C13 UNL     1      58.398  53.020  65.225  0.00  0.00    +0.000 C 
ATOM      3  O3  UNL     1      58.966  53.236  66.496  0.00  0.00    +0.000 OA
ATOM      4  C14 UNL     1      59.621  54.489  66.469  0.00  0.00    +0.000 C 
ATOM      5  C15 UNL     1      59.550  55.076  65.076  0.00  0.00    +0.000 C 
ATOM      6  O4  UNL     1      58.622  56.142  65.050  0.00  0.00    +0.000 OA
ATOM      7  C16 UNL     1      58.016  56.217  66.318  0.00  0.00    +0.000 C 
ATOM      8  C17 UNL     1      58.894  55.491  67.331  0.00  0.00    +0.000 C 
ENDROOT
BRANCH   8   9
ATOM      9  N2  UNL     1      59.867  56.392  67.975  0.00  0.00    +0.000 NA
ATOM     10  H17 UNL     1      59.997  57.264  67.412  0.00  0.00    +0.000 HD
BRANCH   9  11
ATOM     11  S1  UNL     1      59.348  56.843  69.573  0.00  0.00    +0.000 S 
ATOM     12  O5  UNL     1      58.584  58.135  69.499  0.00  0.00    +0.000 OA
ATOM     13  O6  UNL     1      58.444  55.787  70.148  0.00  0.00    +0.000 OA
BRANCH  11  14
ATOM     14  C18 UNL     1      60.755  57.067  70.607  0.00  0.00    +0.000 A 
ATOM     15  C19 UNL     1      61.218  58.362  70.875  0.00  0.00    +0.000 A 
ATOM     16  C20 UNL     1      62.351  58.559  71.668  0.00  0.00    +0.000 A 
ATOM     17  C21 UNL     1      63.037  57.459  72.202  0.00  0.00    +0.000 A 
ATOM     18  C22 UNL     1      64.179  57.645  72.997  0.00  0.00    +0.000 A 
ATOM     19  C23 UNL     1      64.857  56.540  73.519  0.00  0.00    +0.000 A 
ATOM     20  C24 UNL     1      64.402  55.245  73.254  0.00  0.00    +0.000 A 
ATOM     21  C25 UNL     1      63.267  55.046  72.463  0.00  0.00    +0.000 A 
ATOM     22  C26 UNL     1      62.576  56.148  71.932  0.00  0.00    +0.000 A 
ATOM     23  C27 UNL     1      61.436  55.961  71.134  0.00  0.00    +0.000 A 
ENDBRANCH  11  14
ENDBRANCH   9  11
ENDBRANCH   8   9
BRANCH   1  24
ATOM     24  O2  UNL     1      58.189  54.317  63.191  0.00  0.00    +0.000 OA
BRANCH  24  26
ATOM     25  O1  UNL     1      58.996  52.877  61.574  0.00  0.00    +0.000 OA
ATOM     26  C1  UNL     1      58.323  53.906  61.860  0.00  0.00    +0.000 C 
ATOM     27  N1  UNL     1      57.707  54.682  60.826  0.00  0.00    +0.000 N 
ATOM     28  H1  UNL     1      57.283  55.598  61.094  0.00  0.00    +0.000 HD
BRANCH  27  29
ATOM     29  C2  UNL     1      57.667  54.270  59.449  0.00  0.00    +0.000 A 
ATOM     30  C3  UNL     1      56.584  53.504  58.987  0.00  0.00    +0.000 A 
ATOM     31  C4  UNL     1      56.488  53.140  57.644  0.00  0.00    +0.000 A 
ATOM     32  C5  UNL     1      57.467  53.539  56.736  0.00  0.00    +0.000 A 
ATOM     33  C6  UNL     1      58.558  54.305  57.167  0.00  0.00    +0.000 A 
ATOM     34  C7  UNL     1      59.545  54.702  56.250  0.00  0.00    +0.000 A 
ATOM     35  C8  UNL     1      60.640  55.454  56.677  0.00  0.00    +0.000 A 
ATOM     36  C9  UNL     1      60.766  55.810  58.020  0.00  0.00    +0.000 A 
ATOM     37  C10 UNL     1      59.792  55.423  58.945  0.00  0.00    +0.000 A 
ATOM     38  C11 UNL     1      58.669  54.677  58.534  0.00  0.00    +0.000 A 
ENDBRANCH  27  29
ENDBRANCH  24  26
ENDBRANCH   1  24
TORSDOF 6
ENDMDL
MODEL 9
REMARK VINA RESULT:    -7.105      2.941      7.784
REMARK INTER + INTRA:         -11.215
REMARK INTER:                 -10.404
REMARK INTRA:                  -0.811
REMARK UNBOUND:                -1.619
REMARK  Name = CNP0022627_1.pdb
REMARK  6 active torsions:
REMARK  status: ('A' for Active; 'I' for Inactive)
REMARK    1  A    between atoms: C1_2  and  O2_14
REMARK    2  A    between atoms: N1_3  and  C2_4
REMARK    3  A    between atoms: O2_14  and  C12_15
REMARK    4  A    between atoms: C17_22  and  N2_23
REMARK    5  A    between atoms: N2_23  and  S1_24
REMARK    6  A    between atoms: S1_24  and  C18_27
REMARK                            x       y       z     vdW  Elec       q    Type
REMARK                         _______ _______ _______ _____ _____    ______ ____
ROOT
ATOM      1  C12 UNL     1      56.150  52.060  71.456  0.00  0.00    +0.000 C 
ATOM      2  C13 UNL     1      54.816  51.723  72.085  0.00  0.00    +0.000 C 
ATOM      3  O3  UNL     1      54.981  51.641  73.481  0.00  0.00    +0.000 OA
ATOM      4  C14 UNL     1      56.169  52.332  73.817  0.00  0.00    +0.000 C 
ATOM      5  C15 UNL     1      56.858  52.810  72.558  0.00  0.00    +0.000 C 
ATOM      6  O4  UNL     1      56.696  54.209  72.422  0.00  0.00    +0.000 OA
ATOM      7  C16 UNL     1      55.861  54.649  73.467  0.00  0.00    +0.000 C 
ATOM      8  C17 UNL     1      55.854  53.599  74.572  0.00  0.00    +0.000 C 
ENDROOT
BRANCH   8   9
ATOM      9  N2  UNL     1      56.898  53.846  75.584  0.00  0.00    +0.000 NA
ATOM     10  H17 UNL     1      57.602  54.536  75.233  0.00  0.00    +0.000 HD
BRANCH   9  11
ATOM     11  S1  UNL     1      56.212  54.464  77.059  0.00  0.00    +0.000 S 
ATOM     12  O5  UNL     1      55.771  55.884  76.843  0.00  0.00    +0.000 OA
ATOM     13  O6  UNL     1      55.014  53.648  77.462  0.00  0.00    +0.000 OA
BRANCH  11  14
ATOM     14  C18 UNL     1      57.428  54.428  78.332  0.00  0.00    +0.000 A 
ATOM     15  C19 UNL     1      57.103  54.895  79.613  0.00  0.00    +0.000 A 
ATOM     16  C20 UNL     1      58.062  54.903  80.628  0.00  0.00    +0.000 A 
ATOM     17  C21 UNL     1      59.362  54.446  80.373  0.00  0.00    +0.000 A 
ATOM     18  C22 UNL     1      60.336  54.452  81.384  0.00  0.00    +0.000 A 
ATOM     19  C23 UNL     1      61.630  53.998  81.115  0.00  0.00    +0.000 A 
ATOM     20  C24 UNL     1      61.962  53.534  79.838  0.00  0.00    +0.000 A 
ATOM     21  C25 UNL     1      61.002  53.522  78.822  0.00  0.00    +0.000 A 
ATOM     22  C26 UNL     1      59.698  53.976  79.079  0.00  0.00    +0.000 A 
ATOM     23  C27 UNL     1      58.726  53.971  78.066  0.00  0.00    +0.000 A 
ENDBRANCH  11  14
ENDBRANCH   9  11
ENDBRANCH   8   9
BRANCH   1  24
ATOM     24  O2  UNL     1      55.971  52.848  70.278  0.00  0.00    +0.000 OA
BRANCH  24  26
ATOM     25  O1  UNL     1      58.053  53.087  69.304  0.00  0.00    +0.000 OA
ATOM     26  C1  UNL     1      56.989  53.627  69.719  0.00  0.00    +0.000 C 
ATOM     27  N1  UNL     1      56.820  55.047  69.646  0.00  0.00    +0.000 N 
ATOM     28  H1  UNL     1      55.992  55.462  70.128  0.00  0.00    +0.000 HD
BRANCH  27  29
ATOM     29  C2  UNL     1      57.741  55.918  68.967  0.00  0.00    +0.000 A 
ATOM     30  C3  UNL     1      57.741  55.964  67.563  0.00  0.00    +0.000 A 
ATOM     31  C4  UNL     1      58.581  56.841  66.878  0.00  0.00    +0.000 A 
ATOM     32  C5  UNL     1      59.432  57.693  67.580  0.00  0.00    +0.000 A 
ATOM     33  C6  UNL     1      59.453  57.671  68.981  0.00  0.00    +0.000 A 
ATOM     34  C7  UNL     1      60.313  58.528  69.685  0.00  0.00    +0.000 A 
ATOM     35  C8  UNL     1      60.347  58.500  71.081  0.00  0.00    +0.000 A 
ATOM     36  C9  UNL     1      59.530  57.614  71.783  0.00  0.00    +0.000 A 
ATOM     37  C10 UNL     1      58.667  56.755  71.098  0.00  0.00    +0.000 A 
ATOM     38  C11 UNL     1      58.605  56.777  69.690  0.00  0.00    +0.000 A 
ENDBRANCH  27  29
ENDBRANCH  24  26
ENDBRANCH   1  24
TORSDOF 6
ENDMDL
MODEL 10
REMARK VINA RESULT:    -7.073      3.382      5.023
REMARK INTER + INTRA:         -11.172
REMARK INTER:                 -10.094
REMARK INTRA:                  -1.078
REMARK UNBOUND:                -1.619
REMARK  Name = CNP0022627_1.pdb
REMARK  6 active torsions:
REMARK  status: ('A' for Active; 'I' for Inactive)
REMARK    1  A    between atoms: C1_2  and  O2_14
REMARK    2  A    between atoms: N1_3  and  C2_4
REMARK    3  A    between atoms: O2_14  and  C12_15
REMARK    4  A    between atoms: C17_22  and  N2_23
REMARK    5  A    between atoms: N2_23  and  S1_24
REMARK    6  A    between atoms: S1_24  and  C18_27
REMARK                            x       y       z     vdW  Elec       q    Type
REMARK                         _______ _______ _______ _____ _____    ______ ____
ROOT
ATOM      1  C12 UNL     1      56.352  52.961  73.493  0.00  0.00    +0.000 C 
ATOM      2  C13 UNL     1      57.650  52.440  72.917  0.00  0.00    +0.000 C 
ATOM      3  O3  UNL     1      57.851  53.025  71.652  0.00  0.00    +0.000 OA
ATOM      4  C14 UNL     1      57.048  54.188  71.581  0.00  0.00    +0.000 C 
ATOM      5  C15 UNL     1      56.213  54.312  72.837  0.00  0.00    +0.000 C 
ATOM      6  O4  UNL     1      56.728  55.344  73.656  0.00  0.00    +0.000 OA
ATOM      7  C16 UNL     1      57.903  55.829  73.051  0.00  0.00    +0.000 C 
ATOM      8  C17 UNL     1      57.905  55.429  71.580  0.00  0.00    +0.000 C 
ENDROOT
BRANCH   8   9
ATOM      9  N2  UNL     1      57.289  56.457  70.721  0.00  0.00    +0.000 NA
ATOM     10  H17 UNL     1      57.000  57.290  71.285  0.00  0.00    +0.000 HD
BRANCH   9  11
ATOM     11  S1  UNL     1      58.393  56.989  69.485  0.00  0.00    +0.000 S 
ATOM     12  O5  UNL     1      58.035  58.388  69.070  0.00  0.00    +0.000 OA
ATOM     13  O6  UNL     1      59.803  56.992  70.008  0.00  0.00    +0.000 OA
BRANCH  11  14
ATOM     14  C18 UNL     1      58.265  55.926  68.087  0.00  0.00    +0.000 A 
ATOM     15  C19 UNL     1      58.260  54.537  68.272  0.00  0.00    +0.000 A 
ATOM     16  C20 UNL     1      58.190  53.677  67.173  0.00  0.00    +0.000 A 
ATOM     17  C21 UNL     1      58.127  54.198  65.874  0.00  0.00    +0.000 A 
ATOM     18  C22 UNL     1      58.060  53.343  64.761  0.00  0.00    +0.000 A 
ATOM     19  C23 UNL     1      58.003  53.875  63.470  0.00  0.00    +0.000 A 
ATOM     20  C24 UNL     1      58.011  55.260  63.279  0.00  0.00    +0.000 A 
ATOM     21  C25 UNL     1      58.077  56.122  64.377  0.00  0.00    +0.000 A 
ATOM     22  C26 UNL     1      58.136  55.600  65.680  0.00  0.00    +0.000 A 
ATOM     23  C27 UNL     1      58.205  56.456  66.791  0.00  0.00    +0.000 A 
ENDBRANCH  11  14
ENDBRANCH   9  11
ENDBRANCH   8   9
BRANCH   1  24
ATOM     24  O2  UNL     1      56.426  53.043  74.917  0.00  0.00    +0.000 OA
BRANCH  24  26
ATOM     25  O1  UNL     1      57.766  51.574  76.093  0.00  0.00    +0.000 OA
ATOM     26  C1  UNL     1      57.583  52.738  75.641  0.00  0.00    +0.000 C 
ATOM     27  N1  UNL     1      58.546  53.770  75.884  0.00  0.00    +0.000 N 
ATOM     28  H1  UNL     1      58.289  54.746  75.616  0.00  0.00    +0.000 HD
BRANCH  27  29
ATOM     29  C2  UNL     1      59.826  53.528  76.492  0.00  0.00    +0.000 A 
ATOM     30  C3  UNL     1      60.915  53.153  75.687  0.00  0.00    +0.000 A 
ATOM     31  C4  UNL     1      62.181  52.968  76.240  0.00  0.00    +0.000 A 
ATOM     32  C5  UNL     1      62.388  53.160  77.604  0.00  0.00    +0.000 A 
ATOM     33  C6  UNL     1      61.322  53.536  78.433  0.00  0.00    +0.000 A 
ATOM     34  C7  UNL     1      61.532  53.726  79.808  0.00  0.00    +0.000 A 
ATOM     35  C8  UNL     1      60.471  54.088  80.639  0.00  0.00    +0.000 A 
ATOM     36  C9  UNL     1      59.191  54.256  80.108  0.00  0.00    +0.000 A 
ATOM     37  C10 UNL     1      58.965  54.072  78.742  0.00  0.00    +0.000 A 
ATOM     38  C11 UNL     1      60.025  53.722  77.881  0.00  0.00    +0.000 A 
ENDBRANCH  27  29
ENDBRANCH  24  26
ENDBRANCH   1  24
TORSDOF 6
ENDMDL
