MODEL 1
REMARK VINA RESULT:    -8.175      0.000      0.000
REMARK INTER + INTRA:         -12.287
REMARK INTER:                 -10.564
REMARK INTRA:                  -1.723
REMARK UNBOUND:                -1.723
REMARK  Name = CNP0604857_3.pdb
REMARK  5 active torsions:
REMARK  status: ('A' for Active; 'I' for Inactive)
REMARK    1  A    between atoms: C12_14  and  C13_15
REMARK    2  A    between atoms: C17_19  and  N2_20
REMARK    3  A    between atoms: N4_28  and  C21_29
REMARK    4  A    between atoms: C21_29  and  C22_30
REMARK    5  A    between atoms: C22_30  and  C23_31
REMARK                            x       y       z     vdW  Elec       q    Type
REMARK                         _______ _______ _______ _____ _____    ______ ____
ROOT
ATOM      1  O1  UNL     1      19.500  34.011  34.602  0.00  0.00    +0.000 OA
ATOM      2  C1  UNL     1      20.035  33.656  35.689  0.00  0.00    +0.000 C 
ATOM      3  C2  UNL     1      19.870  34.553  36.898  0.00  0.00    +0.000 C 
ATOM      4  C3  UNL     1      20.280  35.999  36.545  0.00  0.00    +0.000 C 
ATOM      5  C4  UNL     1      20.170  36.837  37.772  0.00  0.00    +0.000 A 
ATOM      6  C5  UNL     1      20.327  36.341  39.048  0.00  0.00    +0.000 A 
ATOM      7  N1  UNL     1      20.237  37.329  39.969  0.00  0.00    +0.000 N 
ATOM      8  C6  UNL     1      20.038  38.457  39.259  0.00  0.00    +0.000 A 
ATOM      9  C7  UNL     1      19.907  39.754  39.754  0.00  0.00    +0.000 A 
ATOM     10  C8  UNL     1      19.729  40.797  38.826  0.00  0.00    +0.000 A 
ATOM     11  C9  UNL     1      19.690  40.526  37.439  0.00  0.00    +0.000 A 
ATOM     12  C10 UNL     1      19.828  39.208  36.966  0.00  0.00    +0.000 A 
ATOM     13  C11 UNL     1      19.998  38.196  37.910  0.00  0.00    +0.000 A 
ATOM     14  C12 UNL     1      20.642  34.899  39.336  0.00  0.00    +0.000 C 
ATOM     15  N3  UNL     1      20.605  34.079  38.097  0.00  0.00    +0.000 N 
ATOM     16  C19 UNL     1      21.029  32.707  38.158  0.00  0.00    +0.000 C 
ATOM     17  O4  UNL     1      21.050  32.090  39.258  0.00  0.00    +0.000 OA
ATOM     18  C20 UNL     1      21.534  32.037  36.927  0.00  0.00    +0.000 C 
ATOM     19  N4  UNL     1      20.713  32.384  35.767  0.00  0.00    +0.000 N 
ATOM     20  H4  UNL     1      20.335  37.240  41.004  0.00  0.00    +0.000 HD
ENDROOT
BRANCH  14  21
ATOM     21  C13 UNL     1      22.010  34.834  39.985  0.00  0.00    +0.000 A 
ATOM     22  C14 UNL     1      22.135  34.532  41.353  0.00  0.00    +0.000 A 
ATOM     23  C15 UNL     1      23.396  34.454  41.944  0.00  0.00    +0.000 A 
ATOM     24  C16 UNL     1      24.545  34.663  41.180  0.00  0.00    +0.000 A 
ATOM     25  C17 UNL     1      24.445  34.954  39.807  0.00  0.00    +0.000 A 
ATOM     26  C18 UNL     1      23.169  35.036  39.218  0.00  0.00    +0.000 A 
BRANCH  25  27
ATOM     27  N2  UNL     1      25.627  35.165  39.013  0.00  0.00    +0.000 N 
ATOM     28  O2  UNL     1      25.950  34.349  38.123  0.00  0.00    +0.000 OA
ATOM     29  O3  UNL     1      26.422  36.269  39.219  0.00  0.00    +0.000 OA
ENDBRANCH  25  27
ENDBRANCH  14  21
BRANCH  19  30
ATOM     30  C21 UNL     1      20.732  31.490  34.601  0.00  0.00    +0.000 C 
BRANCH  30  31
ATOM     31  C22 UNL     1      19.972  30.198  34.912  0.00  0.00    +0.000 C 
BRANCH  31  32
ATOM     32  C23 UNL     1      18.560  30.501  35.309  0.00  0.00    +0.000 A 
ATOM     33  C24 UNL     1      17.556  31.011  34.491  0.00  0.00    +0.000 A 
ATOM     34  N5  UNL     1      16.428  31.224  35.207  0.00  0.00    +0.000 N 
ATOM     35  C25 UNL     1      16.716  30.864  36.471  0.00  0.00    +0.000 A 
ATOM     36  C26 UNL     1      15.872  30.921  37.579  0.00  0.00    +0.000 A 
ATOM     37  C27 UNL     1      16.389  30.511  38.821  0.00  0.00    +0.000 A 
ATOM     38  C28 UNL     1      17.724  30.063  38.928  0.00  0.00    +0.000 A 
ATOM     39  C29 UNL     1      18.554  30.018  37.792  0.00  0.00    +0.000 A 
ATOM     40  C30 UNL     1      18.010  30.425  36.574  0.00  0.00    +0.000 A 
ATOM     41  H21 UNL     1      15.523  31.603  34.850  0.00  0.00    +0.000 HD
ENDBRANCH  31  32
ENDBRANCH  30  31
ENDBRANCH  19  30
TORSDOF 5
ENDMDL
