
MODEL 3
REMARK VINA RESULT:    -7.658      2.276      6.452
REMARK INTER + INTRA:         -11.618
REMARK INTER:                 -10.106
REMARK INTRA:                  -1.512
REMARK UNBOUND:                -1.723
REMARK  Name = CNP0604857_3.pdb
REMARK  5 active torsions:
REMARK  status: ('A' for Active; 'I' for Inactive)
REMARK    1  A    between atoms: C12_14  and  C13_15
REMARK    2  A    between atoms: C17_19  and  N2_20
REMARK    3  A    between atoms: N4_28  and  C21_29
REMARK    4  A    between atoms: C21_29  and  C22_30
REMARK    5  A    between atoms: C22_30  and  C23_31
REMARK                            x       y       z     vdW  Elec       q    Type
REMARK                         _______ _______ _______ _____ _____    ______ ____
ROOT
ATOM      1  O1  UNL     1      19.277  34.736  34.647  0.00  0.00    +0.000 OA
ATOM      2  C1  UNL     1      20.294  34.789  35.394  0.00  0.00    +0.000 C 
ATOM      3  C2  UNL     1      20.620  33.582  36.249  0.00  0.00    +0.000 C 
ATOM      4  C3  UNL     1      19.379  33.156  37.062  0.00  0.00    +0.000 C 
ATOM      5  C4  UNL     1      19.754  32.014  37.940  0.00  0.00    +0.000 A 
ATOM      6  C5  UNL     1      21.029  31.815  38.426  0.00  0.00    +0.000 A 
ATOM      7  N1  UNL     1      21.075  30.739  39.246  0.00  0.00    +0.000 N 
ATOM      8  C6  UNL     1      19.813  30.269  39.285  0.00  0.00    +0.000 A 
ATOM      9  C7  UNL     1      19.338  29.182  40.018  0.00  0.00    +0.000 A 
ATOM     10  C8  UNL     1      17.966  28.878  39.932  0.00  0.00    +0.000 A 
ATOM     11  C9  UNL     1      17.107  29.663  39.129  0.00  0.00    +0.000 A 
ATOM     12  C10 UNL     1      17.611  30.757  38.402  0.00  0.00    +0.000 A 
ATOM     13  C11 UNL     1      18.974  31.029  38.503  0.00  0.00    +0.000 A 
ATOM     14  C12 UNL     1      22.174  32.743  38.131  0.00  0.00    +0.000 C 
ATOM     15  N3  UNL     1      21.786  33.786  37.145  0.00  0.00    +0.000 N 
ATOM     16  C19 UNL     1      22.710  34.850  36.858  0.00  0.00    +0.000 C 
ATOM     17  O4  UNL     1      23.939  34.716  37.104  0.00  0.00    +0.000 OA
ATOM     18  C20 UNL     1      22.195  36.154  36.354  0.00  0.00    +0.000 C 
ATOM     19  N4  UNL     1      21.147  35.952  35.353  0.00  0.00    +0.000 N 
ATOM     20  H4  UNL     1      21.904  30.372  39.763  0.00  0.00    +0.000 HD
ENDROOT
BRANCH  14  21
ATOM     21  C13 UNL     1      22.620  33.374  39.435  0.00  0.00    +0.000 A 
ATOM     22  C14 UNL     1      21.742  34.193  40.166  0.00  0.00    +0.000 A 
ATOM     23  C15 UNL     1      22.147  34.757  41.376  0.00  0.00    +0.000 A 
ATOM     24  C16 UNL     1      23.426  34.503  41.876  0.00  0.00    +0.000 A 
ATOM     25  C17 UNL     1      24.318  33.677  41.168  0.00  0.00    +0.000 A 
ATOM     26  C18 UNL     1      23.903  33.115  39.946  0.00  0.00    +0.000 A 
BRANCH  25  27
ATOM     27  N2  UNL     1      25.635  33.408  41.682  0.00  0.00    +0.000 N 
ATOM     28  O2  UNL     1      26.344  34.333  42.132  0.00  0.00    +0.000 OA
ATOM     29  O3  UNL     1      26.136  32.126  41.688  0.00  0.00    +0.000 OA
ENDBRANCH  25  27
ENDBRANCH  14  21
BRANCH  19  30
ATOM     30  C21 UNL     1      20.860  37.040  34.409  0.00  0.00    +0.000 C 
BRANCH  30  31
ATOM     31  C22 UNL     1      19.547  37.732  34.782  0.00  0.00    +0.000 C 
BRANCH  31  32
ATOM     32  C23 UNL     1      19.767  38.716  35.890  0.00  0.00    +0.000 A 
ATOM     33  C24 UNL     1      20.302  39.996  35.774  0.00  0.00    +0.000 A 
ATOM     34  N5  UNL     1      20.418  40.571  36.993  0.00  0.00    +0.000 N 
ATOM     35  C25 UNL     1      19.974  39.660  37.877  0.00  0.00    +0.000 A 
ATOM     36  C26 UNL     1      19.916  39.788  39.264  0.00  0.00    +0.000 A 
ATOM     37  C27 UNL     1      19.430  38.695  40.005  0.00  0.00    +0.000 A 
ATOM     38  C28 UNL     1      19.024  37.511  39.351  0.00  0.00    +0.000 A 
ATOM     39  C29 UNL     1      19.095  37.410  37.950  0.00  0.00    +0.000 A 
ATOM     40  C30 UNL     1      19.575  38.513  37.243  0.00  0.00    +0.000 A 
ATOM     41  H21 UNL     1      20.791  41.523  37.201  0.00  0.00    +0.000 HD
ENDBRANCH  31  32
ENDBRANCH  30  31
ENDBRANCH  19  30
TORSDOF 5
ENDMDL

