
MODEL 4
REMARK VINA RESULT:    -7.594      3.358      6.528
REMARK INTER + INTRA:         -11.537
REMARK INTER:                  -9.983
REMARK INTRA:                  -1.553
REMARK UNBOUND:                -1.723
REMARK  Name = CNP0604857_3.pdb
REMARK  5 active torsions:
REMARK  status: ('A' for Active; 'I' for Inactive)
REMARK    1  A    between atoms: C12_14  and  C13_15
REMARK    2  A    between atoms: C17_19  and  N2_20
REMARK    3  A    between atoms: N4_28  and  C21_29
REMARK    4  A    between atoms: C21_29  and  C22_30
REMARK    5  A    between atoms: C22_30  and  C23_31
REMARK                            x       y       z     vdW  Elec       q    Type
REMARK                         _______ _______ _______ _____ _____    ______ ____
ROOT
ATOM      1  O1  UNL     1      22.702  37.575  36.206  0.00  0.00    +0.000 OA
ATOM      2  C1  UNL     1      22.207  36.575  36.797  0.00  0.00    +0.000 C 
ATOM      3  C2  UNL     1      22.794  36.166  38.132  0.00  0.00    +0.000 C 
ATOM      4  C3  UNL     1      24.325  36.016  38.015  0.00  0.00    +0.000 C 
ATOM      5  C4  UNL     1      24.859  35.548  39.324  0.00  0.00    +0.000 A 
ATOM      6  C5  UNL     1      24.132  34.785  40.213  0.00  0.00    +0.000 A 
ATOM      7  N1  UNL     1      24.879  34.450  41.291  0.00  0.00    +0.000 N 
ATOM      8  C6  UNL     1      26.090  34.997  41.067  0.00  0.00    +0.000 A 
ATOM      9  C7  UNL     1      27.219  34.910  41.880  0.00  0.00    +0.000 A 
ATOM     10  C8  UNL     1      28.398  35.540  41.439  0.00  0.00    +0.000 A 
ATOM     11  C9  UNL     1      28.424  36.230  40.205  0.00  0.00    +0.000 A 
ATOM     12  C10 UNL     1      27.271  36.299  39.402  0.00  0.00    +0.000 A 
ATOM     13  C11 UNL     1      26.118  35.670  39.869  0.00  0.00    +0.000 A 
ATOM     14  C12 UNL     1      22.724  34.331  39.945  0.00  0.00    +0.000 C 
ATOM     15  N3  UNL     1      22.189  34.933  38.696  0.00  0.00    +0.000 N 
ATOM     16  C19 UNL     1      20.912  34.495  38.203  0.00  0.00    +0.000 C 
ATOM     17  O4  UNL     1      20.086  33.932  38.972  0.00  0.00    +0.000 OA
ATOM     18  C20 UNL     1      20.600  34.622  36.752  0.00  0.00    +0.000 C 
ATOM     19  N4  UNL     1      21.061  35.908  36.228  0.00  0.00    +0.000 N 
ATOM     20  H4  UNL     1      24.587  33.866  42.106  0.00  0.00    +0.000 HD
ENDROOT
BRANCH  14  21
ATOM     21  C13 UNL     1      22.724  32.818  39.857  0.00  0.00    +0.000 A 
ATOM     22  C14 UNL     1      21.967  32.052  40.761  0.00  0.00    +0.000 A 
ATOM     23  C15 UNL     1      21.952  30.661  40.665  0.00  0.00    +0.000 A 
ATOM     24  C16 UNL     1      22.681  30.017  39.663  0.00  0.00    +0.000 A 
ATOM     25  C17 UNL     1      23.436  30.763  38.740  0.00  0.00    +0.000 A 
ATOM     26  C18 UNL     1      23.449  32.166  38.845  0.00  0.00    +0.000 A 
BRANCH  25  27
ATOM     27  N2  UNL     1      24.185  30.105  37.701  0.00  0.00    +0.000 N 
ATOM     28  O2  UNL     1      25.105  29.309  37.986  0.00  0.00    +0.000 OA
ATOM     29  O3  UNL     1      23.899  30.339  36.376  0.00  0.00    +0.000 OA
ENDBRANCH  25  27
ENDBRANCH  14  21
BRANCH  19  30
ATOM     30  C21 UNL     1      20.447  36.425  34.997  0.00  0.00    +0.000 C 
BRANCH  30  31
ATOM     31  C22 UNL     1      19.133  37.139  35.321  0.00  0.00    +0.000 C 
BRANCH  31  32
ATOM     32  C23 UNL     1      19.398  38.440  36.017  0.00  0.00    +0.000 A 
ATOM     33  C24 UNL     1      19.735  39.650  35.418  0.00  0.00    +0.000 A 
ATOM     34  N5  UNL     1      19.970  40.592  36.361  0.00  0.00    +0.000 N 
ATOM     35  C25 UNL     1      19.796  39.982  37.547  0.00  0.00    +0.000 A 
ATOM     36  C26 UNL     1      19.945  40.542  38.815  0.00  0.00    +0.000 A 
ATOM     37  C27 UNL     1      19.732  39.712  39.930  0.00  0.00    +0.000 A 
ATOM     38  C28 UNL     1      19.384  38.354  39.755  0.00  0.00    +0.000 A 
ATOM     39  C29 UNL     1      19.242  37.815  38.463  0.00  0.00    +0.000 A 
ATOM     40  C30 UNL     1      19.453  38.666  37.377  0.00  0.00    +0.000 A 
ATOM     41  H21 UNL     1      20.244  41.586  36.196  0.00  0.00    +0.000 HD
ENDBRANCH  31  32
ENDBRANCH  30  31
ENDBRANCH  19  30
TORSDOF 5
ENDMDL
