MODEL 1
REMARK VINA RESULT:    -8.175      0.000      0.000
REMARK INTER + INTRA:         -12.287
REMARK INTER:                 -10.564
REMARK INTRA:                  -1.723
REMARK UNBOUND:                -1.723
REMARK  Name = CNP0604857_3.pdb
REMARK  5 active torsions:
REMARK  status: ('A' for Active; 'I' for Inactive)
REMARK    1  A    between atoms: C12_14  and  C13_15
REMARK    2  A    between atoms: C17_19  and  N2_20
REMARK    3  A    between atoms: N4_28  and  C21_29
REMARK    4  A    between atoms: C21_29  and  C22_30
REMARK    5  A    between atoms: C22_30  and  C23_31
REMARK                            x       y       z     vdW  Elec       q    Type
REMARK                         _______ _______ _______ _____ _____    ______ ____
ROOT
ATOM      1  O1  UNL     1      19.500  34.011  34.602  0.00  0.00    +0.000 OA
ATOM      2  C1  UNL     1      20.035  33.656  35.689  0.00  0.00    +0.000 C 
ATOM      3  C2  UNL     1      19.870  34.553  36.898  0.00  0.00    +0.000 C 
ATOM      4  C3  UNL     1      20.280  35.999  36.545  0.00  0.00    +0.000 C 
ATOM      5  C4  UNL     1      20.170  36.837  37.772  0.00  0.00    +0.000 A 
ATOM      6  C5  UNL     1      20.327  36.341  39.048  0.00  0.00    +0.000 A 
ATOM      7  N1  UNL     1      20.237  37.329  39.969  0.00  0.00    +0.000 N 
ATOM      8  C6  UNL     1      20.038  38.457  39.259  0.00  0.00    +0.000 A 
ATOM      9  C7  UNL     1      19.907  39.754  39.754  0.00  0.00    +0.000 A 
ATOM     10  C8  UNL     1      19.729  40.797  38.826  0.00  0.00    +0.000 A 
ATOM     11  C9  UNL     1      19.690  40.526  37.439  0.00  0.00    +0.000 A 
ATOM     12  C10 UNL     1      19.828  39.208  36.966  0.00  0.00    +0.000 A 
ATOM     13  C11 UNL     1      19.998  38.196  37.910  0.00  0.00    +0.000 A 
ATOM     14  C12 UNL     1      20.642  34.899  39.336  0.00  0.00    +0.000 C 
ATOM     15  N3  UNL     1      20.605  34.079  38.097  0.00  0.00    +0.000 N 
ATOM     16  C19 UNL     1      21.029  32.707  38.158  0.00  0.00    +0.000 C 
ATOM     17  O4  UNL     1      21.050  32.090  39.258  0.00  0.00    +0.000 OA
ATOM     18  C20 UNL     1      21.534  32.037  36.927  0.00  0.00    +0.000 C 
ATOM     19  N4  UNL     1      20.713  32.384  35.767  0.00  0.00    +0.000 N 
ATOM     20  H4  UNL     1      20.335  37.240  41.004  0.00  0.00    +0.000 HD
ENDROOT
BRANCH  14  21
ATOM     21  C13 UNL     1      22.010  34.834  39.985  0.00  0.00    +0.000 A 
ATOM     22  C14 UNL     1      22.135  34.532  41.353  0.00  0.00    +0.000 A 
ATOM     23  C15 UNL     1      23.396  34.454  41.944  0.00  0.00    +0.000 A 
ATOM     24  C16 UNL     1      24.545  34.663  41.180  0.00  0.00    +0.000 A 
ATOM     25  C17 UNL     1      24.445  34.954  39.807  0.00  0.00    +0.000 A 
ATOM     26  C18 UNL     1      23.169  35.036  39.218  0.00  0.00    +0.000 A 
BRANCH  25  27
ATOM     27  N2  UNL     1      25.627  35.165  39.013  0.00  0.00    +0.000 N 
ATOM     28  O2  UNL     1      25.950  34.349  38.123  0.00  0.00    +0.000 OA
ATOM     29  O3  UNL     1      26.422  36.269  39.219  0.00  0.00    +0.000 OA
ENDBRANCH  25  27
ENDBRANCH  14  21
BRANCH  19  30
ATOM     30  C21 UNL     1      20.732  31.490  34.601  0.00  0.00    +0.000 C 
BRANCH  30  31
ATOM     31  C22 UNL     1      19.972  30.198  34.912  0.00  0.00    +0.000 C 
BRANCH  31  32
ATOM     32  C23 UNL     1      18.560  30.501  35.309  0.00  0.00    +0.000 A 
ATOM     33  C24 UNL     1      17.556  31.011  34.491  0.00  0.00    +0.000 A 
ATOM     34  N5  UNL     1      16.428  31.224  35.207  0.00  0.00    +0.000 N 
ATOM     35  C25 UNL     1      16.716  30.864  36.471  0.00  0.00    +0.000 A 
ATOM     36  C26 UNL     1      15.872  30.921  37.579  0.00  0.00    +0.000 A 
ATOM     37  C27 UNL     1      16.389  30.511  38.821  0.00  0.00    +0.000 A 
ATOM     38  C28 UNL     1      17.724  30.063  38.928  0.00  0.00    +0.000 A 
ATOM     39  C29 UNL     1      18.554  30.018  37.792  0.00  0.00    +0.000 A 
ATOM     40  C30 UNL     1      18.010  30.425  36.574  0.00  0.00    +0.000 A 
ATOM     41  H21 UNL     1      15.523  31.603  34.850  0.00  0.00    +0.000 HD
ENDBRANCH  31  32
ENDBRANCH  30  31
ENDBRANCH  19  30
TORSDOF 5
ENDMDL
MODEL 2
REMARK VINA RESULT:    -7.875      2.285      4.857
REMARK INTER + INTRA:         -11.899
REMARK INTER:                 -10.357
REMARK INTRA:                  -1.543
REMARK UNBOUND:                -1.723
REMARK  Name = CNP0604857_3.pdb
REMARK  5 active torsions:
REMARK  status: ('A' for Active; 'I' for Inactive)
REMARK    1  A    between atoms: C12_14  and  C13_15
REMARK    2  A    between atoms: C17_19  and  N2_20
REMARK    3  A    between atoms: N4_28  and  C21_29
REMARK    4  A    between atoms: C21_29  and  C22_30
REMARK    5  A    between atoms: C22_30  and  C23_31
REMARK                            x       y       z     vdW  Elec       q    Type
REMARK                         _______ _______ _______ _____ _____    ______ ____
ROOT
ATOM      1  O1  UNL     1      20.948  33.247  41.025  0.00  0.00    +0.000 OA
ATOM      2  C1  UNL     1      21.280  33.317  39.808  0.00  0.00    +0.000 C 
ATOM      3  C2  UNL     1      21.572  34.682  39.221  0.00  0.00    +0.000 C 
ATOM      4  C3  UNL     1      20.405  35.647  39.515  0.00  0.00    +0.000 C 
ATOM      5  C4  UNL     1      20.694  36.956  38.866  0.00  0.00    +0.000 A 
ATOM      6  C5  UNL     1      21.460  37.087  37.727  0.00  0.00    +0.000 A 
ATOM      7  N1  UNL     1      21.510  38.377  37.320  0.00  0.00    +0.000 N 
ATOM      8  C6  UNL     1      20.755  39.057  38.205  0.00  0.00    +0.000 A 
ATOM      9  C7  UNL     1      20.472  40.423  38.200  0.00  0.00    +0.000 A 
ATOM     10  C8  UNL     1      19.633  40.924  39.212  0.00  0.00    +0.000 A 
ATOM     11  C9  UNL     1      19.096  40.060  40.193  0.00  0.00    +0.000 A 
ATOM     12  C10 UNL     1      19.394  38.685  40.173  0.00  0.00    +0.000 A 
ATOM     13  C11 UNL     1      20.233  38.219  39.161  0.00  0.00    +0.000 A 
ATOM     14  C12 UNL     1      22.073  35.916  37.010  0.00  0.00    +0.000 C 
ATOM     15  N3  UNL     1      21.873  34.653  37.767  0.00  0.00    +0.000 N 
ATOM     16  C19 UNL     1      22.260  33.409  37.160  0.00  0.00    +0.000 C 
ATOM     17  O4  UNL     1      23.093  33.389  36.213  0.00  0.00    +0.000 OA
ATOM     18  C20 UNL     1      21.602  32.144  37.591  0.00  0.00    +0.000 C 
ATOM     19  N4  UNL     1      21.444  32.103  39.045  0.00  0.00    +0.000 N 
ATOM     20  H4  UNL     1      22.002  38.757  36.481  0.00  0.00    +0.000 HD
ENDROOT
BRANCH  14  21
ATOM     21  C13 UNL     1      21.446  35.824  35.633  0.00  0.00    +0.000 A 
ATOM     22  C14 UNL     1      22.244  35.929  34.480  0.00  0.00    +0.000 A 
ATOM     23  C15 UNL     1      21.668  35.825  33.214  0.00  0.00    +0.000 A 
ATOM     24  C16 UNL     1      20.295  35.604  33.081  0.00  0.00    +0.000 A 
ATOM     25  C17 UNL     1      19.480  35.483  34.222  0.00  0.00    +0.000 A 
ATOM     26  C18 UNL     1      20.067  35.593  35.495  0.00  0.00    +0.000 A 
BRANCH  25  27
ATOM     27  N2  UNL     1      18.065  35.249  34.090  0.00  0.00    +0.000 N 
ATOM     28  O2  UNL     1      17.248  36.177  34.263  0.00  0.00    +0.000 OA
ATOM     29  O3  UNL     1      17.589  33.998  33.772  0.00  0.00    +0.000 OA
ENDBRANCH  25  27
ENDBRANCH  14  21
BRANCH  19  30
ATOM     30  C21 UNL     1      21.277  30.797  39.697  0.00  0.00    +0.000 C 
BRANCH  30  31
ATOM     31  C22 UNL     1      20.560  29.825  38.758  0.00  0.00    +0.000 C 
BRANCH  31  32
ATOM     32  C23 UNL     1      19.137  29.632  39.186  0.00  0.00    +0.000 A 
ATOM     33  C24 UNL     1      18.688  28.882  40.269  0.00  0.00    +0.000 A 
ATOM     34  N5  UNL     1      17.336  28.875  40.309  0.00  0.00    +0.000 N 
ATOM     35  C25 UNL     1      16.929  29.603  39.254  0.00  0.00    +0.000 A 
ATOM     36  C26 UNL     1      15.616  29.867  38.865  0.00  0.00    +0.000 A 
ATOM     37  C27 UNL     1      15.416  30.640  37.707  0.00  0.00    +0.000 A 
ATOM     38  C28 UNL     1      16.520  31.123  36.970  0.00  0.00    +0.000 A 
ATOM     39  C29 UNL     1      17.834  30.839  37.385  0.00  0.00    +0.000 A 
ATOM     40  C30 UNL     1      18.000  30.075  38.541  0.00  0.00    +0.000 A 
ATOM     41  H21 UNL     1      16.734  28.390  41.011  0.00  0.00    +0.000 HD
ENDBRANCH  31  32
ENDBRANCH  30  31
ENDBRANCH  19  30
TORSDOF 5
ENDMDL
MODEL 3
REMARK VINA RESULT:    -7.658      2.276      6.452
REMARK INTER + INTRA:         -11.618
REMARK INTER:                 -10.106
REMARK INTRA:                  -1.512
REMARK UNBOUND:                -1.723
REMARK  Name = CNP0604857_3.pdb
REMARK  5 active torsions:
REMARK  status: ('A' for Active; 'I' for Inactive)
REMARK    1  A    between atoms: C12_14  and  C13_15
REMARK    2  A    between atoms: C17_19  and  N2_20
REMARK    3  A    between atoms: N4_28  and  C21_29
REMARK    4  A    between atoms: C21_29  and  C22_30
REMARK    5  A    between atoms: C22_30  and  C23_31
REMARK                            x       y       z     vdW  Elec       q    Type
REMARK                         _______ _______ _______ _____ _____    ______ ____
ROOT
ATOM      1  O1  UNL     1      19.277  34.736  34.647  0.00  0.00    +0.000 OA
ATOM      2  C1  UNL     1      20.294  34.789  35.394  0.00  0.00    +0.000 C 
ATOM      3  C2  UNL     1      20.620  33.582  36.249  0.00  0.00    +0.000 C 
ATOM      4  C3  UNL     1      19.379  33.156  37.062  0.00  0.00    +0.000 C 
ATOM      5  C4  UNL     1      19.754  32.014  37.940  0.00  0.00    +0.000 A 
ATOM      6  C5  UNL     1      21.029  31.815  38.426  0.00  0.00    +0.000 A 
ATOM      7  N1  UNL     1      21.075  30.739  39.246  0.00  0.00    +0.000 N 
ATOM      8  C6  UNL     1      19.813  30.269  39.285  0.00  0.00    +0.000 A 
ATOM      9  C7  UNL     1      19.338  29.182  40.018  0.00  0.00    +0.000 A 
ATOM     10  C8  UNL     1      17.966  28.878  39.932  0.00  0.00    +0.000 A 
ATOM     11  C9  UNL     1      17.107  29.663  39.129  0.00  0.00    +0.000 A 
ATOM     12  C10 UNL     1      17.611  30.757  38.402  0.00  0.00    +0.000 A 
ATOM     13  C11 UNL     1      18.974  31.029  38.503  0.00  0.00    +0.000 A 
ATOM     14  C12 UNL     1      22.174  32.743  38.131  0.00  0.00    +0.000 C 
ATOM     15  N3  UNL     1      21.786  33.786  37.145  0.00  0.00    +0.000 N 
ATOM     16  C19 UNL     1      22.710  34.850  36.858  0.00  0.00    +0.000 C 
ATOM     17  O4  UNL     1      23.939  34.716  37.104  0.00  0.00    +0.000 OA
ATOM     18  C20 UNL     1      22.195  36.154  36.354  0.00  0.00    +0.000 C 
ATOM     19  N4  UNL     1      21.147  35.952  35.353  0.00  0.00    +0.000 N 
ATOM     20  H4  UNL     1      21.904  30.372  39.763  0.00  0.00    +0.000 HD
ENDROOT
BRANCH  14  21
ATOM     21  C13 UNL     1      22.620  33.374  39.435  0.00  0.00    +0.000 A 
ATOM     22  C14 UNL     1      21.742  34.193  40.166  0.00  0.00    +0.000 A 
ATOM     23  C15 UNL     1      22.147  34.757  41.376  0.00  0.00    +0.000 A 
ATOM     24  C16 UNL     1      23.426  34.503  41.876  0.00  0.00    +0.000 A 
ATOM     25  C17 UNL     1      24.318  33.677  41.168  0.00  0.00    +0.000 A 
ATOM     26  C18 UNL     1      23.903  33.115  39.946  0.00  0.00    +0.000 A 
BRANCH  25  27
ATOM     27  N2  UNL     1      25.635  33.408  41.682  0.00  0.00    +0.000 N 
ATOM     28  O2  UNL     1      26.344  34.333  42.132  0.00  0.00    +0.000 OA
ATOM     29  O3  UNL     1      26.136  32.126  41.688  0.00  0.00    +0.000 OA
ENDBRANCH  25  27
ENDBRANCH  14  21
BRANCH  19  30
ATOM     30  C21 UNL     1      20.860  37.040  34.409  0.00  0.00    +0.000 C 
BRANCH  30  31
ATOM     31  C22 UNL     1      19.547  37.732  34.782  0.00  0.00    +0.000 C 
BRANCH  31  32
ATOM     32  C23 UNL     1      19.767  38.716  35.890  0.00  0.00    +0.000 A 
ATOM     33  C24 UNL     1      20.302  39.996  35.774  0.00  0.00    +0.000 A 
ATOM     34  N5  UNL     1      20.418  40.571  36.993  0.00  0.00    +0.000 N 
ATOM     35  C25 UNL     1      19.974  39.660  37.877  0.00  0.00    +0.000 A 
ATOM     36  C26 UNL     1      19.916  39.788  39.264  0.00  0.00    +0.000 A 
ATOM     37  C27 UNL     1      19.430  38.695  40.005  0.00  0.00    +0.000 A 
ATOM     38  C28 UNL     1      19.024  37.511  39.351  0.00  0.00    +0.000 A 
ATOM     39  C29 UNL     1      19.095  37.410  37.950  0.00  0.00    +0.000 A 
ATOM     40  C30 UNL     1      19.575  38.513  37.243  0.00  0.00    +0.000 A 
ATOM     41  H21 UNL     1      20.791  41.523  37.201  0.00  0.00    +0.000 HD
ENDBRANCH  31  32
ENDBRANCH  30  31
ENDBRANCH  19  30
TORSDOF 5
ENDMDL
MODEL 4
REMARK VINA RESULT:    -7.594      3.358      6.528
REMARK INTER + INTRA:         -11.537
REMARK INTER:                  -9.983
REMARK INTRA:                  -1.553
REMARK UNBOUND:                -1.723
REMARK  Name = CNP0604857_3.pdb
REMARK  5 active torsions:
REMARK  status: ('A' for Active; 'I' for Inactive)
REMARK    1  A    between atoms: C12_14  and  C13_15
REMARK    2  A    between atoms: C17_19  and  N2_20
REMARK    3  A    between atoms: N4_28  and  C21_29
REMARK    4  A    between atoms: C21_29  and  C22_30
REMARK    5  A    between atoms: C22_30  and  C23_31
REMARK                            x       y       z     vdW  Elec       q    Type
REMARK                         _______ _______ _______ _____ _____    ______ ____
ROOT
ATOM      1  O1  UNL     1      22.702  37.575  36.206  0.00  0.00    +0.000 OA
ATOM      2  C1  UNL     1      22.207  36.575  36.797  0.00  0.00    +0.000 C 
ATOM      3  C2  UNL     1      22.794  36.166  38.132  0.00  0.00    +0.000 C 
ATOM      4  C3  UNL     1      24.325  36.016  38.015  0.00  0.00    +0.000 C 
ATOM      5  C4  UNL     1      24.859  35.548  39.324  0.00  0.00    +0.000 A 
ATOM      6  C5  UNL     1      24.132  34.785  40.213  0.00  0.00    +0.000 A 
ATOM      7  N1  UNL     1      24.879  34.450  41.291  0.00  0.00    +0.000 N 
ATOM      8  C6  UNL     1      26.090  34.997  41.067  0.00  0.00    +0.000 A 
ATOM      9  C7  UNL     1      27.219  34.910  41.880  0.00  0.00    +0.000 A 
ATOM     10  C8  UNL     1      28.398  35.540  41.439  0.00  0.00    +0.000 A 
ATOM     11  C9  UNL     1      28.424  36.230  40.205  0.00  0.00    +0.000 A 
ATOM     12  C10 UNL     1      27.271  36.299  39.402  0.00  0.00    +0.000 A 
ATOM     13  C11 UNL     1      26.118  35.670  39.869  0.00  0.00    +0.000 A 
ATOM     14  C12 UNL     1      22.724  34.331  39.945  0.00  0.00    +0.000 C 
ATOM     15  N3  UNL     1      22.189  34.933  38.696  0.00  0.00    +0.000 N 
ATOM     16  C19 UNL     1      20.912  34.495  38.203  0.00  0.00    +0.000 C 
ATOM     17  O4  UNL     1      20.086  33.932  38.972  0.00  0.00    +0.000 OA
ATOM     18  C20 UNL     1      20.600  34.622  36.752  0.00  0.00    +0.000 C 
ATOM     19  N4  UNL     1      21.061  35.908  36.228  0.00  0.00    +0.000 N 
ATOM     20  H4  UNL     1      24.587  33.866  42.106  0.00  0.00    +0.000 HD
ENDROOT
BRANCH  14  21
ATOM     21  C13 UNL     1      22.724  32.818  39.857  0.00  0.00    +0.000 A 
ATOM     22  C14 UNL     1      21.967  32.052  40.761  0.00  0.00    +0.000 A 
ATOM     23  C15 UNL     1      21.952  30.661  40.665  0.00  0.00    +0.000 A 
ATOM     24  C16 UNL     1      22.681  30.017  39.663  0.00  0.00    +0.000 A 
ATOM     25  C17 UNL     1      23.436  30.763  38.740  0.00  0.00    +0.000 A 
ATOM     26  C18 UNL     1      23.449  32.166  38.845  0.00  0.00    +0.000 A 
BRANCH  25  27
ATOM     27  N2  UNL     1      24.185  30.105  37.701  0.00  0.00    +0.000 N 
ATOM     28  O2  UNL     1      25.105  29.309  37.986  0.00  0.00    +0.000 OA
ATOM     29  O3  UNL     1      23.899  30.339  36.376  0.00  0.00    +0.000 OA
ENDBRANCH  25  27
ENDBRANCH  14  21
BRANCH  19  30
ATOM     30  C21 UNL     1      20.447  36.425  34.997  0.00  0.00    +0.000 C 
BRANCH  30  31
ATOM     31  C22 UNL     1      19.133  37.139  35.321  0.00  0.00    +0.000 C 
BRANCH  31  32
ATOM     32  C23 UNL     1      19.398  38.440  36.017  0.00  0.00    +0.000 A 
ATOM     33  C24 UNL     1      19.735  39.650  35.418  0.00  0.00    +0.000 A 
ATOM     34  N5  UNL     1      19.970  40.592  36.361  0.00  0.00    +0.000 N 
ATOM     35  C25 UNL     1      19.796  39.982  37.547  0.00  0.00    +0.000 A 
ATOM     36  C26 UNL     1      19.945  40.542  38.815  0.00  0.00    +0.000 A 
ATOM     37  C27 UNL     1      19.732  39.712  39.930  0.00  0.00    +0.000 A 
ATOM     38  C28 UNL     1      19.384  38.354  39.755  0.00  0.00    +0.000 A 
ATOM     39  C29 UNL     1      19.242  37.815  38.463  0.00  0.00    +0.000 A 
ATOM     40  C30 UNL     1      19.453  38.666  37.377  0.00  0.00    +0.000 A 
ATOM     41  H21 UNL     1      20.244  41.586  36.196  0.00  0.00    +0.000 HD
ENDBRANCH  31  32
ENDBRANCH  30  31
ENDBRANCH  19  30
TORSDOF 5
ENDMDL
MODEL 5
REMARK VINA RESULT:    -7.239      5.485      8.067
REMARK INTER + INTRA:         -11.078
REMARK INTER:                 -10.055
REMARK INTRA:                  -1.023
REMARK UNBOUND:                -1.723
REMARK  Name = CNP0604857_3.pdb
REMARK  5 active torsions:
REMARK  status: ('A' for Active; 'I' for Inactive)
REMARK    1  A    between atoms: C12_14  and  C13_15
REMARK    2  A    between atoms: C17_19  and  N2_20
REMARK    3  A    between atoms: N4_28  and  C21_29
REMARK    4  A    between atoms: C21_29  and  C22_30
REMARK    5  A    between atoms: C22_30  and  C23_31
REMARK                            x       y       z     vdW  Elec       q    Type
REMARK                         _______ _______ _______ _____ _____    ______ ____
ROOT
ATOM      1  O1  UNL     1      17.770  34.967  33.729  0.00  0.00    +0.000 OA
ATOM      2  C1  UNL     1      17.981  36.104  33.223  0.00  0.00    +0.000 C 
ATOM      3  C2  UNL     1      18.840  37.085  33.994  0.00  0.00    +0.000 C 
ATOM      4  C3  UNL     1      18.314  37.229  35.438  0.00  0.00    +0.000 C 
ATOM      5  C4  UNL     1      19.137  38.250  36.144  0.00  0.00    +0.000 A 
ATOM      6  C5  UNL     1      19.763  39.298  35.504  0.00  0.00    +0.000 A 
ATOM      7  N1  UNL     1      20.391  40.105  36.391  0.00  0.00    +0.000 N 
ATOM      8  C6  UNL     1      20.141  39.565  37.600  0.00  0.00    +0.000 A 
ATOM      9  C7  UNL     1      20.552  40.048  38.842  0.00  0.00    +0.000 A 
ATOM     10  C8  UNL     1      20.154  39.335  39.989  0.00  0.00    +0.000 A 
ATOM     11  C9  UNL     1      19.360  38.172  39.872  0.00  0.00    +0.000 A 
ATOM     12  C10 UNL     1      18.956  37.708  38.606  0.00  0.00    +0.000 A 
ATOM     13  C11 UNL     1      19.370  38.432  37.489  0.00  0.00    +0.000 A 
ATOM     14  C12 UNL     1      19.667  39.529  34.021  0.00  0.00    +0.000 C 
ATOM     15  N3  UNL     1      18.954  38.415  33.344  0.00  0.00    +0.000 N 
ATOM     16  C19 UNL     1      18.637  38.538  31.947  0.00  0.00    +0.000 C 
ATOM     17  O4  UNL     1      19.266  39.350  31.216  0.00  0.00    +0.000 OA
ATOM     18  C20 UNL     1      17.494  37.769  31.382  0.00  0.00    +0.000 C 
ATOM     19  N4  UNL     1      17.470  36.403  31.907  0.00  0.00    +0.000 N 
ATOM     20  H4  UNL     1      20.925  40.978  36.184  0.00  0.00    +0.000 HD
ENDROOT
BRANCH  14  21
ATOM     21  C13 UNL     1      18.950  40.845  33.793  0.00  0.00    +0.000 A 
ATOM     22  C14 UNL     1      17.569  40.954  34.031  0.00  0.00    +0.000 A 
ATOM     23  C15 UNL     1      16.915  42.171  33.839  0.00  0.00    +0.000 A 
ATOM     24  C16 UNL     1      17.630  43.295  33.420  0.00  0.00    +0.000 A 
ATOM     25  C17 UNL     1      19.015  43.213  33.188  0.00  0.00    +0.000 A 
ATOM     26  C18 UNL     1      19.668  41.981  33.380  0.00  0.00    +0.000 A 
BRANCH  25  27
ATOM     27  N2  UNL     1      19.758  44.370  32.761  0.00  0.00    +0.000 N 
ATOM     28  O2  UNL     1      19.930  45.337  33.534  0.00  0.00    +0.000 OA
ATOM     29  O3  UNL     1      20.293  44.432  31.495  0.00  0.00    +0.000 OA
ENDBRANCH  25  27
ENDBRANCH  14  21
BRANCH  19  30
ATOM     30  C21 UNL     1      16.755  35.371  31.144  0.00  0.00    +0.000 C 
BRANCH  30  31
ATOM     31  C22 UNL     1      15.287  35.317  31.574  0.00  0.00    +0.000 C 
BRANCH  31  32
ATOM     32  C23 UNL     1      14.710  33.960  31.310  0.00  0.00    +0.000 A 
ATOM     33  C24 UNL     1      15.379  32.741  31.386  0.00  0.00    +0.000 A 
ATOM     34  N5  UNL     1      14.561  31.731  31.011  0.00  0.00    +0.000 N 
ATOM     35  C25 UNL     1      13.388  32.303  30.687  0.00  0.00    +0.000 A 
ATOM     36  C26 UNL     1      12.237  31.668  30.223  0.00  0.00    +0.000 A 
ATOM     37  C27 UNL     1      11.119  32.468  29.922  0.00  0.00    +0.000 A 
ATOM     38  C28 UNL     1      11.178  33.870  30.085  0.00  0.00    +0.000 A 
ATOM     39  C29 UNL     1      12.354  34.484  30.553  0.00  0.00    +0.000 A 
ATOM     40  C30 UNL     1      13.443  33.663  30.849  0.00  0.00    +0.000 A 
ATOM     41  H21 UNL     1      14.800  30.716  30.970  0.00  0.00    +0.000 HD
ENDBRANCH  31  32
ENDBRANCH  30  31
ENDBRANCH  19  30
TORSDOF 5
ENDMDL
MODEL 6
REMARK VINA RESULT:    -6.984      5.625      9.092
REMARK INTER + INTRA:         -10.749
REMARK INTER:                  -9.082
REMARK INTRA:                  -1.667
REMARK UNBOUND:                -1.723
REMARK  Name = CNP0604857_3.pdb
REMARK  5 active torsions:
REMARK  status: ('A' for Active; 'I' for Inactive)
REMARK    1  A    between atoms: C12_14  and  C13_15
REMARK    2  A    between atoms: C17_19  and  N2_20
REMARK    3  A    between atoms: N4_28  and  C21_29
REMARK    4  A    between atoms: C21_29  and  C22_30
REMARK    5  A    between atoms: C22_30  and  C23_31
REMARK                            x       y       z     vdW  Elec       q    Type
REMARK                         _______ _______ _______ _____ _____    ______ ____
ROOT
ATOM      1  O1  UNL     1      19.632  36.251  34.244  0.00  0.00    +0.000 OA
ATOM      2  C1  UNL     1      19.820  37.487  34.424  0.00  0.00    +0.000 C 
ATOM      3  C2  UNL     1      18.647  38.426  34.233  0.00  0.00    +0.000 C 
ATOM      4  C3  UNL     1      17.987  38.179  32.861  0.00  0.00    +0.000 C 
ATOM      5  C4  UNL     1      16.884  39.163  32.678  0.00  0.00    +0.000 A 
ATOM      6  C5  UNL     1      16.877  40.413  33.259  0.00  0.00    +0.000 A 
ATOM      7  N1  UNL     1      15.789  41.121  32.878  0.00  0.00    +0.000 N 
ATOM      8  C6  UNL     1      15.116  40.311  32.038  0.00  0.00    +0.000 A 
ATOM      9  C7  UNL     1      13.934  40.596  31.355  0.00  0.00    +0.000 A 
ATOM     10  C8  UNL     1      13.412  39.606  30.501  0.00  0.00    +0.000 A 
ATOM     11  C9  UNL     1      14.078  38.369  30.345  0.00  0.00    +0.000 A 
ATOM     12  C10 UNL     1      15.272  38.108  31.043  0.00  0.00    +0.000 A 
ATOM     13  C11 UNL     1      15.760  39.106  31.885  0.00  0.00    +0.000 A 
ATOM     14  C12 UNL     1      17.994  40.921  34.129  0.00  0.00    +0.000 C 
ATOM     15  N3  UNL     1      19.001  39.859  34.392  0.00  0.00    +0.000 N 
ATOM     16  C19 UNL     1      20.214  40.207  35.080  0.00  0.00    +0.000 C 
ATOM     17  O4  UNL     1      20.275  41.248  35.788  0.00  0.00    +0.000 OA
ATOM     18  C20 UNL     1      21.436  39.378  34.880  0.00  0.00    +0.000 C 
ATOM     19  N4  UNL     1      21.109  37.952  34.877  0.00  0.00    +0.000 N 
ATOM     20  H4  UNL     1      15.542  42.098  33.151  0.00  0.00    +0.000 HD
ENDROOT
BRANCH  14  21
ATOM     21  C13 UNL     1      18.632  42.108  33.434  0.00  0.00    +0.000 A 
ATOM     22  C14 UNL     1      18.428  43.411  33.921  0.00  0.00    +0.000 A 
ATOM     23  C15 UNL     1      19.032  44.500  33.292  0.00  0.00    +0.000 A 
ATOM     24  C16 UNL     1      19.853  44.303  32.180  0.00  0.00    +0.000 A 
ATOM     25  C17 UNL     1      20.081  43.007  31.683  0.00  0.00    +0.000 A 
ATOM     26  C18 UNL     1      19.466  41.914  32.320  0.00  0.00    +0.000 A 
BRANCH  25  27
ATOM     27  N2  UNL     1      20.932  42.798  30.541  0.00  0.00    +0.000 N 
ATOM     28  O2  UNL     1      20.444  42.672  29.397  0.00  0.00    +0.000 OA
ATOM     29  O3  UNL     1      22.299  42.736  30.687  0.00  0.00    +0.000 OA
ENDBRANCH  25  27
ENDBRANCH  14  21
BRANCH  19  30
ATOM     30  C21 UNL     1      22.175  36.986  35.175  0.00  0.00    +0.000 C 
BRANCH  30  31
ATOM     31  C22 UNL     1      22.717  37.216  36.587  0.00  0.00    +0.000 C 
BRANCH  31  32
ATOM     32  C23 UNL     1      21.638  37.009  37.606  0.00  0.00    +0.000 A 
ATOM     33  C24 UNL     1      20.986  35.814  37.898  0.00  0.00    +0.000 A 
ATOM     34  N5  UNL     1      20.020  36.018  38.822  0.00  0.00    +0.000 N 
ATOM     35  C25 UNL     1      20.048  37.333  39.105  0.00  0.00    +0.000 A 
ATOM     36  C26 UNL     1      19.223  38.025  39.991  0.00  0.00    +0.000 A 
ATOM     37  C27 UNL     1      19.414  39.412  40.120  0.00  0.00    +0.000 A 
ATOM     38  C28 UNL     1      20.410  40.071  39.366  0.00  0.00    +0.000 A 
ATOM     39  C29 UNL     1      21.227  39.347  38.477  0.00  0.00    +0.000 A 
ATOM     40  C30 UNL     1      21.017  37.972  38.377  0.00  0.00    +0.000 A 
ATOM     41  H21 UNL     1      19.375  35.301  39.221  0.00  0.00    +0.000 HD
ENDBRANCH  31  32
ENDBRANCH  30  31
ENDBRANCH  19  30
TORSDOF 5
ENDMDL
MODEL 7
REMARK VINA RESULT:    -6.883      3.810      7.403
REMARK INTER + INTRA:         -10.618
REMARK INTER:                  -9.277
REMARK INTRA:                  -1.340
REMARK UNBOUND:                -1.723
REMARK  Name = CNP0604857_3.pdb
REMARK  5 active torsions:
REMARK  status: ('A' for Active; 'I' for Inactive)
REMARK    1  A    between atoms: C12_14  and  C13_15
REMARK    2  A    between atoms: C17_19  and  N2_20
REMARK    3  A    between atoms: N4_28  and  C21_29
REMARK    4  A    between atoms: C21_29  and  C22_30
REMARK    5  A    between atoms: C22_30  and  C23_31
REMARK                            x       y       z     vdW  Elec       q    Type
REMARK                         _______ _______ _______ _____ _____    ______ ____
ROOT
ATOM      1  O1  UNL     1      19.003  37.340  38.353  0.00  0.00    +0.000 OA
ATOM      2  C1  UNL     1      20.010  37.286  37.593  0.00  0.00    +0.000 C 
ATOM      3  C2  UNL     1      20.423  38.545  36.858  0.00  0.00    +0.000 C 
ATOM      4  C3  UNL     1      19.214  39.140  36.106  0.00  0.00    +0.000 C 
ATOM      5  C4  UNL     1      19.671  40.334  35.341  0.00  0.00    +0.000 A 
ATOM      6  C5  UNL     1      20.956  40.486  34.864  0.00  0.00    +0.000 A 
ATOM      7  N1  UNL     1      21.079  41.632  34.155  0.00  0.00    +0.000 N 
ATOM      8  C6  UNL     1      19.856  42.196  34.176  0.00  0.00    +0.000 A 
ATOM      9  C7  UNL     1      19.462  43.383  33.561  0.00  0.00    +0.000 A 
ATOM     10  C8  UNL     1      18.117  43.777  33.691  0.00  0.00    +0.000 A 
ATOM     11  C9  UNL     1      17.204  42.983  34.421  0.00  0.00    +0.000 A 
ATOM     12  C10 UNL     1      17.627  41.786  35.030  0.00  0.00    +0.000 A 
ATOM     13  C11 UNL     1      18.965  41.426  34.887  0.00  0.00    +0.000 A 
ATOM     14  C12 UNL     1      22.029  39.450  35.053  0.00  0.00    +0.000 C 
ATOM     15  N3  UNL     1      21.567  38.346  35.934  0.00  0.00    +0.000 N 
ATOM     16  C19 UNL     1      22.409  37.193  36.104  0.00  0.00    +0.000 C 
ATOM     17  O4  UNL     1      23.644  37.259  35.860  0.00  0.00    +0.000 OA
ATOM     18  C20 UNL     1      21.800  35.887  36.482  0.00  0.00    +0.000 C 
ATOM     19  N4  UNL     1      20.774  36.065  37.509  0.00  0.00    +0.000 N 
ATOM     20  H4  UNL     1      21.932  41.986  33.668  0.00  0.00    +0.000 HD
ENDROOT
BRANCH  14  21
ATOM     21  C13 UNL     1      22.422  38.921  33.688  0.00  0.00    +0.000 A 
ATOM     22  C14 UNL     1      23.690  39.206  33.152  0.00  0.00    +0.000 A 
ATOM     23  C15 UNL     1      24.057  38.702  31.904  0.00  0.00    +0.000 A 
ATOM     24  C16 UNL     1      23.171  37.902  31.181  0.00  0.00    +0.000 A 
ATOM     25  C17 UNL     1      21.901  37.594  31.703  0.00  0.00    +0.000 A 
ATOM     26  C18 UNL     1      21.536  38.108  32.961  0.00  0.00    +0.000 A 
BRANCH  25  27
ATOM     27  N2  UNL     1      20.986  36.763  30.964  0.00  0.00    +0.000 N 
ATOM     28  O2  UNL     1      21.392  35.748  30.360  0.00  0.00    +0.000 OA
ATOM     29  O3  UNL     1      19.646  37.073  30.910  0.00  0.00    +0.000 OA
ENDBRANCH  25  27
ENDBRANCH  14  21
BRANCH  19  30
ATOM     30  C21 UNL     1      20.409  34.912  38.344  0.00  0.00    +0.000 C 
BRANCH  30  31
ATOM     31  C22 UNL     1      21.621  34.001  38.547  0.00  0.00    +0.000 C 
BRANCH  31  32
ATOM     32  C23 UNL     1      22.219  34.214  39.904  0.00  0.00    +0.000 A 
ATOM     33  C24 UNL     1      21.542  34.220  41.121  0.00  0.00    +0.000 A 
ATOM     34  N5  UNL     1      22.392  34.515  42.131  0.00  0.00    +0.000 N 
ATOM     35  C25 UNL     1      23.595  34.708  41.561  0.00  0.00    +0.000 A 
ATOM     36  C26 UNL     1      24.786  35.052  42.198  0.00  0.00    +0.000 A 
ATOM     37  C27 UNL     1      25.932  35.225  41.400  0.00  0.00    +0.000 A 
ATOM     38  C28 UNL     1      25.861  35.056  39.999  0.00  0.00    +0.000 A 
ATOM     39  C29 UNL     1      24.643  34.711  39.384  0.00  0.00    +0.000 A 
ATOM     40  C30 UNL     1      23.527  34.540  40.202  0.00  0.00    +0.000 A 
ATOM     41  H21 UNL     1      22.155  34.590  43.145  0.00  0.00    +0.000 HD
ENDBRANCH  31  32
ENDBRANCH  30  31
ENDBRANCH  19  30
TORSDOF 5
ENDMDL
MODEL 8
REMARK VINA RESULT:    -6.620      3.512      6.873
REMARK INTER + INTRA:         -10.278
REMARK INTER:                  -8.936
REMARK INTRA:                  -1.342
REMARK UNBOUND:                -1.723
REMARK  Name = CNP0604857_3.pdb
REMARK  5 active torsions:
REMARK  status: ('A' for Active; 'I' for Inactive)
REMARK    1  A    between atoms: C12_14  and  C13_15
REMARK    2  A    between atoms: C17_19  and  N2_20
REMARK    3  A    between atoms: N4_28  and  C21_29
REMARK    4  A    between atoms: C21_29  and  C22_30
REMARK    5  A    between atoms: C22_30  and  C23_31
REMARK                            x       y       z     vdW  Elec       q    Type
REMARK                         _______ _______ _______ _____ _____    ______ ____
ROOT
ATOM      1  O1  UNL     1      23.303  37.109  36.950  0.00  0.00    +0.000 OA
ATOM      2  C1  UNL     1      23.151  36.086  37.674  0.00  0.00    +0.000 C 
ATOM      3  C2  UNL     1      24.035  35.931  38.894  0.00  0.00    +0.000 C 
ATOM      4  C3  UNL     1      25.518  36.093  38.498  0.00  0.00    +0.000 C 
ATOM      5  C4  UNL     1      26.360  35.868  39.705  0.00  0.00    +0.000 A 
ATOM      6  C5  UNL     1      25.985  35.054  40.753  0.00  0.00    +0.000 A 
ATOM      7  N1  UNL     1      26.962  34.982  41.687  0.00  0.00    +0.000 N 
ATOM      8  C6  UNL     1      27.964  35.746  41.211  0.00  0.00    +0.000 A 
ATOM      9  C7  UNL     1      29.208  35.971  41.801  0.00  0.00    +0.000 A 
ATOM     10  C8  UNL     1      30.123  36.790  41.113  0.00  0.00    +0.000 A 
ATOM     11  C9  UNL     1      29.782  37.356  39.863  0.00  0.00    +0.000 A 
ATOM     12  C10 UNL     1      28.521  37.109  39.289  0.00  0.00    +0.000 A 
ATOM     13  C11 UNL     1      27.635  36.299  39.996  0.00  0.00    +0.000 A 
ATOM     14  C12 UNL     1      24.688  34.294  40.779  0.00  0.00    +0.000 C 
ATOM     15  N3  UNL     1      23.825  34.656  39.623  0.00  0.00    +0.000 N 
ATOM     16  C19 UNL     1      22.612  33.917  39.404  0.00  0.00    +0.000 C 
ATOM     17  O4  UNL     1      22.077  33.267  40.342  0.00  0.00    +0.000 OA
ATOM     18  C20 UNL     1      22.034  33.845  38.032  0.00  0.00    +0.000 C 
ATOM     19  N4  UNL     1      22.100  35.145  37.366  0.00  0.00    +0.000 N 
ATOM     20  H4  UNL     1      26.953  34.426  42.571  0.00  0.00    +0.000 HD
ENDROOT
BRANCH  14  21
ATOM     21  C13 UNL     1      25.008  32.812  40.769  0.00  0.00    +0.000 A 
ATOM     22  C14 UNL     1      24.738  32.019  41.899  0.00  0.00    +0.000 A 
ATOM     23  C15 UNL     1      25.015  30.652  41.881  0.00  0.00    +0.000 A 
ATOM     24  C16 UNL     1      25.552  30.058  40.737  0.00  0.00    +0.000 A 
ATOM     25  C17 UNL     1      25.818  30.830  39.591  0.00  0.00    +0.000 A 
ATOM     26  C18 UNL     1      25.540  32.209  39.618  0.00  0.00    +0.000 A 
BRANCH  25  27
ATOM     27  N2  UNL     1      26.366  30.221  38.407  0.00  0.00    +0.000 N 
ATOM     28  O2  UNL     1      25.624  29.898  37.455  0.00  0.00    +0.000 OA
ATOM     29  O3  UNL     1      27.718  29.985  38.302  0.00  0.00    +0.000 OA
ENDBRANCH  25  27
ENDBRANCH  14  21
BRANCH  19  30
ATOM     30  C21 UNL     1      21.184  35.409  36.248  0.00  0.00    +0.000 C 
BRANCH  30  31
ATOM     31  C22 UNL     1      19.780  35.711  36.775  0.00  0.00    +0.000 C 
BRANCH  31  32
ATOM     32  C23 UNL     1      19.842  36.693  37.905  0.00  0.00    +0.000 A 
ATOM     33  C24 UNL     1      19.803  36.401  39.265  0.00  0.00    +0.000 A 
ATOM     34  N5  UNL     1      19.809  37.542  39.992  0.00  0.00    +0.000 N 
ATOM     35  C25 UNL     1      19.839  38.550  39.103  0.00  0.00    +0.000 A 
ATOM     36  C26 UNL     1      19.839  39.917  39.375  0.00  0.00    +0.000 A 
ATOM     37  C27 UNL     1      19.852  40.805  38.283  0.00  0.00    +0.000 A 
ATOM     38  C28 UNL     1      19.861  40.311  36.959  0.00  0.00    +0.000 A 
ATOM     39  C29 UNL     1      19.859  38.925  36.715  0.00  0.00    +0.000 A 
ATOM     40  C30 UNL     1      19.852  38.071  37.819  0.00  0.00    +0.000 A 
ATOM     41  H21 UNL     1      19.783  37.619  41.033  0.00  0.00    +0.000 HD
ENDBRANCH  31  32
ENDBRANCH  30  31
ENDBRANCH  19  30
TORSDOF 5
ENDMDL
MODEL 9
REMARK VINA RESULT:    -6.562      4.292      7.328
REMARK INTER + INTRA:         -10.203
REMARK INTER:                  -8.806
REMARK INTRA:                  -1.397
REMARK UNBOUND:                -1.723
REMARK  Name = CNP0604857_3.pdb
REMARK  5 active torsions:
REMARK  status: ('A' for Active; 'I' for Inactive)
REMARK    1  A    between atoms: C12_14  and  C13_15
REMARK    2  A    between atoms: C17_19  and  N2_20
REMARK    3  A    between atoms: N4_28  and  C21_29
REMARK    4  A    between atoms: C21_29  and  C22_30
REMARK    5  A    between atoms: C22_30  and  C23_31
REMARK                            x       y       z     vdW  Elec       q    Type
REMARK                         _______ _______ _______ _____ _____    ______ ____
ROOT
ATOM      1  O1  UNL     1      24.557  36.040  37.351  0.00  0.00    +0.000 OA
ATOM      2  C1  UNL     1      24.779  35.348  38.383  0.00  0.00    +0.000 C 
ATOM      3  C2  UNL     1      25.665  35.934  39.464  0.00  0.00    +0.000 C 
ATOM      4  C3  UNL     1      26.993  36.426  38.852  0.00  0.00    +0.000 C 
ATOM      5  C4  UNL     1      27.864  36.931  39.949  0.00  0.00    +0.000 A 
ATOM      6  C5  UNL     1      27.804  36.462  41.244  0.00  0.00    +0.000 A 
ATOM      7  N1  UNL     1      28.746  37.050  42.019  0.00  0.00    +0.000 N 
ATOM      8  C6  UNL     1      29.412  37.883  41.196  0.00  0.00    +0.000 A 
ATOM      9  C7  UNL     1      30.497  38.699  41.516  0.00  0.00    +0.000 A 
ATOM     10  C8  UNL     1      31.061  39.477  40.488  0.00  0.00    +0.000 A 
ATOM     11  C9  UNL     1      30.538  39.421  39.176  0.00  0.00    +0.000 A 
ATOM     12  C10 UNL     1      29.445  38.586  38.879  0.00  0.00    +0.000 A 
ATOM     13  C11 UNL     1      28.904  37.832  39.919  0.00  0.00    +0.000 A 
ATOM     14  C12 UNL     1      26.860  35.377  41.682  0.00  0.00    +0.000 C 
ATOM     15  N3  UNL     1      25.922  35.003  40.591  0.00  0.00    +0.000 N 
ATOM     16  C19 UNL     1      25.047  33.878  40.781  0.00  0.00    +0.000 C 
ATOM     17  O4  UNL     1      24.780  33.461  41.940  0.00  0.00    +0.000 OA
ATOM     18  C20 UNL     1      24.528  33.142  39.594  0.00  0.00    +0.000 C 
ATOM     19  N4  UNL     1      24.128  34.069  38.536  0.00  0.00    +0.000 N 
ATOM     20  H4  UNL     1      28.936  36.870  43.029  0.00  0.00    +0.000 HD
ENDROOT
BRANCH  14  21
ATOM     21  C13 UNL     1      27.683  34.181  42.118  0.00  0.00    +0.000 A 
ATOM     22  C14 UNL     1      28.430  33.451  41.178  0.00  0.00    +0.000 A 
ATOM     23  C15 UNL     1      29.203  32.362  41.585  0.00  0.00    +0.000 A 
ATOM     24  C16 UNL     1      29.248  31.996  42.932  0.00  0.00    +0.000 A 
ATOM     25  C17 UNL     1      28.518  32.721  43.892  0.00  0.00    +0.000 A 
ATOM     26  C18 UNL     1      27.738  33.815  43.474  0.00  0.00    +0.000 A 
BRANCH  25  27
ATOM     27  N2  UNL     1      28.567  32.351  45.282  0.00  0.00    +0.000 N 
ATOM     28  O2  UNL     1      28.454  33.218  46.176  0.00  0.00    +0.000 OA
ATOM     29  O3  UNL     1      28.736  31.037  45.652  0.00  0.00    +0.000 OA
ENDBRANCH  25  27
ENDBRANCH  14  21
BRANCH  19  30
ATOM     30  C21 UNL     1      23.175  33.604  37.519  0.00  0.00    +0.000 C 
BRANCH  30  31
ATOM     31  C22 UNL     1      21.832  33.264  38.169  0.00  0.00    +0.000 C 
BRANCH  31  32
ATOM     32  C23 UNL     1      21.234  34.480  38.808  0.00  0.00    +0.000 A 
ATOM     33  C24 UNL     1      21.232  34.792  40.165  0.00  0.00    +0.000 A 
ATOM     34  N5  UNL     1      20.538  35.933  40.384  0.00  0.00    +0.000 N 
ATOM     35  C25 UNL     1      20.092  36.334  39.181  0.00  0.00    +0.000 A 
ATOM     36  C26 UNL     1      19.311  37.455  38.899  0.00  0.00    +0.000 A 
ATOM     37  C27 UNL     1      18.937  37.677  37.561  0.00  0.00    +0.000 A 
ATOM     38  C28 UNL     1      19.344  36.782  36.547  0.00  0.00    +0.000 A 
ATOM     39  C29 UNL     1      20.131  35.658  36.861  0.00  0.00    +0.000 A 
ATOM     40  C30 UNL     1      20.490  35.469  38.195  0.00  0.00    +0.000 A 
ATOM     41  H21 UNL     1      20.373  36.396  41.305  0.00  0.00    +0.000 HD
ENDBRANCH  31  32
ENDBRANCH  30  31
ENDBRANCH  19  30
TORSDOF 5
ENDMDL
MODEL 10
REMARK VINA RESULT:    -6.372      3.690      7.232
REMARK INTER + INTRA:          -9.957
REMARK INTER:                  -8.581
REMARK INTRA:                  -1.375
REMARK UNBOUND:                -1.723
REMARK  Name = CNP0604857_3.pdb
REMARK  5 active torsions:
REMARK  status: ('A' for Active; 'I' for Inactive)
REMARK    1  A    between atoms: C12_14  and  C13_15
REMARK    2  A    between atoms: C17_19  and  N2_20
REMARK    3  A    between atoms: N4_28  and  C21_29
REMARK    4  A    between atoms: C21_29  and  C22_30
REMARK    5  A    between atoms: C22_30  and  C23_31
REMARK                            x       y       z     vdW  Elec       q    Type
REMARK                         _______ _______ _______ _____ _____    ______ ____
ROOT
ATOM      1  O1  UNL     1      23.304  36.270  36.918  0.00  0.00    +0.000 OA
ATOM      2  C1  UNL     1      23.516  35.671  38.009  0.00  0.00    +0.000 C 
ATOM      3  C2  UNL     1      24.800  35.970  38.755  0.00  0.00    +0.000 C 
ATOM      4  C3  UNL     1      26.011  35.811  37.812  0.00  0.00    +0.000 C 
ATOM      5  C4  UNL     1      27.257  36.045  38.594  0.00  0.00    +0.000 A 
ATOM      6  C5  UNL     1      27.365  35.793  39.944  0.00  0.00    +0.000 A 
ATOM      7  N1  UNL     1      28.622  36.036  40.385  0.00  0.00    +0.000 N 
ATOM      8  C6  UNL     1      29.310  36.430  39.296  0.00  0.00    +0.000 A 
ATOM      9  C7  UNL     1      30.660  36.770  39.227  0.00  0.00    +0.000 A 
ATOM     10  C8  UNL     1      31.184  37.131  37.971  0.00  0.00    +0.000 A 
ATOM     11  C9  UNL     1      30.358  37.139  36.824  0.00  0.00    +0.000 A 
ATOM     12  C10 UNL     1      28.999  36.788  36.921  0.00  0.00    +0.000 A 
ATOM     13  C11 UNL     1      28.508  36.441  38.178  0.00  0.00    +0.000 A 
ATOM     14  C12 UNL     1      26.238  35.238  40.769  0.00  0.00    +0.000 C 
ATOM     15  N3  UNL     1      24.981  35.151  39.980  0.00  0.00    +0.000 N 
ATOM     16  C19 UNL     1      23.837  34.504  40.562  0.00  0.00    +0.000 C 
ATOM     17  O4  UNL     1      23.744  34.366  41.812  0.00  0.00    +0.000 OA
ATOM     18  C20 UNL     1      22.799  33.908  39.676  0.00  0.00    +0.000 C 
ATOM     19  N4  UNL     1      22.506  34.789  38.545  0.00  0.00    +0.000 N 
ATOM     20  H4  UNL     1      28.987  35.913  41.356  0.00  0.00    +0.000 HD
ENDROOT
BRANCH  14  21
ATOM     21  C13 UNL     1      26.651  33.871  41.277  0.00  0.00    +0.000 A 
ATOM     22  C14 UNL     1      26.987  33.686  42.630  0.00  0.00    +0.000 A 
ATOM     23  C15 UNL     1      27.348  32.423  43.099  0.00  0.00    +0.000 A 
ATOM     24  C16 UNL     1      27.368  31.329  42.231  0.00  0.00    +0.000 A 
ATOM     25  C17 UNL     1      27.023  31.489  40.876  0.00  0.00    +0.000 A 
ATOM     26  C18 UNL     1      26.663  32.766  40.409  0.00  0.00    +0.000 A 
BRANCH  25  27
ATOM     27  N2  UNL     1      27.035  30.363  39.979  0.00  0.00    +0.000 N 
ATOM     28  O2  UNL     1      28.108  29.952  39.488  0.00  0.00    +0.000 OA
ATOM     29  O3  UNL     1      25.866  29.719  39.646  0.00  0.00    +0.000 OA
ENDBRANCH  25  27
ENDBRANCH  14  21
BRANCH  19  30
ATOM     30  C21 UNL     1      21.222  34.634  37.848  0.00  0.00    +0.000 C 
BRANCH  30  31
ATOM     31  C22 UNL     1      20.147  35.485  38.526  0.00  0.00    +0.000 C 
BRANCH  31  32
ATOM     32  C23 UNL     1      19.983  36.793  37.814  0.00  0.00    +0.000 A 
ATOM     33  C24 UNL     1      20.000  37.000  36.438  0.00  0.00    +0.000 A 
ATOM     34  N5  UNL     1      19.894  38.319  36.159  0.00  0.00    +0.000 N 
ATOM     35  C25 UNL     1      19.824  38.947  37.346  0.00  0.00    +0.000 A 
ATOM     36  C26 UNL     1      19.724  40.319  37.573  0.00  0.00    +0.000 A 
ATOM     37  C27 UNL     1      19.684  40.764  38.907  0.00  0.00    +0.000 A 
ATOM     38  C28 UNL     1      19.750  39.838  39.972  0.00  0.00    +0.000 A 
ATOM     39  C29 UNL     1      19.852  38.459  39.713  0.00  0.00    +0.000 A 
ATOM     40  C30 UNL     1      19.883  38.049  38.380  0.00  0.00    +0.000 A 
ATOM     41  H21 UNL     1      19.884  38.759  35.212  0.00  0.00    +0.000 HD
ENDBRANCH  31  32
ENDBRANCH  30  31
ENDBRANCH  19  30
TORSDOF 5
ENDMDL
