MODEL 1
REMARK VINA RESULT:    -8.869      0.000      0.000
REMARK INTER + INTRA:         -13.044
REMARK INTER:                 -11.462
REMARK INTRA:                  -1.582
REMARK UNBOUND:                -1.582
REMARK  Name = CNP0604857_3.pdb
REMARK  5 active torsions:
REMARK  status: ('A' for Active; 'I' for Inactive)
REMARK    1  A    between atoms: C12_14  and  C13_15
REMARK    2  A    between atoms: C17_19  and  N2_20
REMARK    3  A    between atoms: N4_28  and  C21_29
REMARK    4  A    between atoms: C21_29  and  C22_30
REMARK    5  A    between atoms: C22_30  and  C23_31
REMARK                            x       y       z     vdW  Elec       q    Type
REMARK                         _______ _______ _______ _____ _____    ______ ____
ROOT
ATOM      1  O1  UNL     1      63.817  55.818  73.985  0.00  0.00    +0.000 OA
ATOM      2  C1  UNL     1      62.938  54.995  73.606  0.00  0.00    +0.000 C 
ATOM      3  C2  UNL     1      62.203  55.274  72.311  0.00  0.00    +0.000 C 
ATOM      4  C3  UNL     1      61.627  56.706  72.325  0.00  0.00    +0.000 C 
ATOM      5  C4  UNL     1      60.855  56.921  71.069  0.00  0.00    +0.000 A 
ATOM      6  C5  UNL     1      60.229  55.905  70.379  0.00  0.00    +0.000 A 
ATOM      7  N1  UNL     1      59.552  56.389  69.311  0.00  0.00    +0.000 N 
ATOM      8  C6  UNL     1      59.744  57.722  69.344  0.00  0.00    +0.000 A 
ATOM      9  C7  UNL     1      59.225  58.672  68.465  0.00  0.00    +0.000 A 
ATOM     10  C8  UNL     1      59.534  60.025  68.701  0.00  0.00    +0.000 A 
ATOM     11  C9  UNL     1      60.342  60.395  69.800  0.00  0.00    +0.000 A 
ATOM     12  C10 UNL     1      60.850  59.417  70.674  0.00  0.00    +0.000 A 
ATOM     13  C11 UNL     1      60.531  58.086  70.411  0.00  0.00    +0.000 A 
ATOM     14  C12 UNL     1      60.247  54.472  70.831  0.00  0.00    +0.000 C 
ATOM     15  N3  UNL     1      61.138  54.286  72.006  0.00  0.00    +0.000 N 
ATOM     16  C19 UNL     1      61.162  53.009  72.666  0.00  0.00    +0.000 C 
ATOM     17  O4  UNL     1      60.770  51.970  72.069  0.00  0.00    +0.000 OA
ATOM     18  C20 UNL     1      61.565  52.929  74.098  0.00  0.00    +0.000 C 
ATOM     19  N4  UNL     1      62.716  53.789  74.368  0.00  0.00    +0.000 N 
ATOM     20  H4  UNL     1      58.977  55.847  68.628  0.00  0.00    +0.000 HD
ENDROOT
BRANCH  14  21
ATOM     21  C13 UNL     1      58.826  54.062  71.163  0.00  0.00    +0.000 A 
ATOM     22  C14 UNL     1      58.136  53.155  70.340  0.00  0.00    +0.000 A 
ATOM     23  C15 UNL     1      56.835  52.765  70.658  0.00  0.00    +0.000 A 
ATOM     24  C16 UNL     1      56.211  53.265  71.803  0.00  0.00    +0.000 A 
ATOM     25  C17 UNL     1      56.887  54.164  72.648  0.00  0.00    +0.000 A 
ATOM     26  C18 UNL     1      58.197  54.556  72.319  0.00  0.00    +0.000 A 
BRANCH  25  27
ATOM     27  N2  UNL     1      56.250  54.677  73.833  0.00  0.00    +0.000 N 
ATOM     28  O2  UNL     1      55.047  55.014  73.814  0.00  0.00    +0.000 OA
ATOM     29  O3  UNL     1      56.955  54.803  75.008  0.00  0.00    +0.000 OA
ENDBRANCH  25  27
ENDBRANCH  14  21
BRANCH  19  30
ATOM     30  C21 UNL     1      63.547  53.502  75.545  0.00  0.00    +0.000 C 
BRANCH  30  31
ATOM     31  C22 UNL     1      62.906  52.398  76.388  0.00  0.00    +0.000 C 
BRANCH  31  32
ATOM     32  C23 UNL     1      62.482  52.933  77.722  0.00  0.00    +0.000 A 
ATOM     33  C24 UNL     1      63.255  52.998  78.877  0.00  0.00    +0.000 A 
ATOM     34  N5  UNL     1      62.521  53.474  79.909  0.00  0.00    +0.000 N 
ATOM     35  C25 UNL     1      61.290  53.697  79.417  0.00  0.00    +0.000 A 
ATOM     36  C26 UNL     1      60.177  54.174  80.109  0.00  0.00    +0.000 A 
ATOM     37  C27 UNL     1      58.971  54.315  79.399  0.00  0.00    +0.000 A 
ATOM     38  C28 UNL     1      58.904  53.975  78.029  0.00  0.00    +0.000 A 
ATOM     39  C29 UNL     1      60.043  53.494  77.357  0.00  0.00    +0.000 A 
ATOM     40  C30 UNL     1      61.225  53.372  78.088  0.00  0.00    +0.000 A 
ATOM     41  H21 UNL     1      62.846  53.623  80.890  0.00  0.00    +0.000 HD
ENDBRANCH  31  32
ENDBRANCH  30  31
ENDBRANCH  19  30
TORSDOF 5
ENDMDL
