
MODEL 4
REMARK VINA RESULT:    -8.338      4.935      7.393
REMARK INTER + INTRA:         -12.358
REMARK INTER:                 -11.102
REMARK INTRA:                  -1.256
REMARK UNBOUND:                -1.582
REMARK  Name = CNP0604857_3.pdb
REMARK  5 active torsions:
REMARK  status: ('A' for Active; 'I' for Inactive)
REMARK    1  A    between atoms: C12_14  and  C13_15
REMARK    2  A    between atoms: C17_19  and  N2_20
REMARK    3  A    between atoms: N4_28  and  C21_29
REMARK    4  A    between atoms: C21_29  and  C22_30
REMARK    5  A    between atoms: C22_30  and  C23_31
REMARK                            x       y       z     vdW  Elec       q    Type
REMARK                         _______ _______ _______ _____ _____    ______ ____
ROOT
ATOM      1  O1  UNL     1      59.306  58.145  67.223  0.00  0.00    +0.000 OA
ATOM      2  C1  UNL     1      59.255  56.924  67.538  0.00  0.00    +0.000 C 
ATOM      3  C2  UNL     1      59.352  55.893  66.433  0.00  0.00    +0.000 C 
ATOM      4  C3  UNL     1      58.325  56.205  65.325  0.00  0.00    +0.000 C 
ATOM      5  C4  UNL     1      58.400  55.135  64.291  0.00  0.00    +0.000 A 
ATOM      6  C5  UNL     1      58.786  53.840  64.563  0.00  0.00    +0.000 A 
ATOM      7  N1  UNL     1      58.707  53.066  63.456  0.00  0.00    +0.000 N 
ATOM      8  C6  UNL     1      58.252  53.881  62.485  0.00  0.00    +0.000 A 
ATOM      9  C7  UNL     1      57.976  53.545  61.160  0.00  0.00    +0.000 A 
ATOM     10  C8  UNL     1      57.480  54.555  60.315  0.00  0.00    +0.000 A 
ATOM     11  C9  UNL     1      57.267  55.863  60.807  0.00  0.00    +0.000 A 
ATOM     12  C10 UNL     1      57.550  56.175  62.150  0.00  0.00    +0.000 A 
ATOM     13  C11 UNL     1      58.045  55.155  62.961  0.00  0.00    +0.000 A 
ATOM     14  C12 UNL     1      59.158  53.367  65.941  0.00  0.00    +0.000 C 
ATOM     15  N3  UNL     1      59.200  54.495  66.908  0.00  0.00    +0.000 N 
ATOM     16  C19 UNL     1      59.390  54.207  68.304  0.00  0.00    +0.000 C 
ATOM     17  O4  UNL     1      59.898  53.113  68.671  0.00  0.00    +0.000 OA
ATOM     18  C20 UNL     1      58.897  55.172  69.327  0.00  0.00    +0.000 C 
ATOM     19  N4  UNL     1      59.185  56.550  68.931  0.00  0.00    +0.000 N 
ATOM     20  H4  UNL     1      58.921  52.047  63.380  0.00  0.00    +0.000 HD
ENDROOT
BRANCH  14  21
ATOM     21  C13 UNL     1      58.145  52.324  66.372  0.00  0.00    +0.000 A 
ATOM     22  C14 UNL     1      58.535  50.986  66.555  0.00  0.00    +0.000 A 
ATOM     23  C15 UNL     1      57.606  50.033  66.971  0.00  0.00    +0.000 A 
ATOM     24  C16 UNL     1      56.282  50.402  67.219  0.00  0.00    +0.000 A 
ATOM     25  C17 UNL     1      55.872  51.738  67.055  0.00  0.00    +0.000 A 
ATOM     26  C18 UNL     1      56.814  52.694  66.631  0.00  0.00    +0.000 A 
BRANCH  25  27
ATOM     27  N2  UNL     1      54.511  52.125  67.316  0.00  0.00    +0.000 N 
ATOM     28  O2  UNL     1      54.229  52.835  68.304  0.00  0.00    +0.000 OA
ATOM     29  O3  UNL     1      53.495  51.720  66.480  0.00  0.00    +0.000 OA
ENDBRANCH  25  27
ENDBRANCH  14  21
BRANCH  19  30
ATOM     30  C21 UNL     1      59.227  57.586  69.972  0.00  0.00    +0.000 C 
BRANCH  30  31
ATOM     31  C22 UNL     1      59.690  56.983  71.299  0.00  0.00    +0.000 C 
BRANCH  31  32
ATOM     32  C23 UNL     1      61.050  57.496  71.665  0.00  0.00    +0.000 A 
ATOM     33  C24 UNL     1      61.578  58.746  71.359  0.00  0.00    +0.000 A 
ATOM     34  N5  UNL     1      62.859  58.834  71.786  0.00  0.00    +0.000 N 
ATOM     35  C25 UNL     1      63.146  57.646  72.347  0.00  0.00    +0.000 A 
ATOM     36  C26 UNL     1      64.356  57.250  72.915  0.00  0.00    +0.000 A 
ATOM     37  C27 UNL     1      64.445  55.943  73.429  0.00  0.00    +0.000 A 
ATOM     38  C28 UNL     1      63.336  55.070  73.361  0.00  0.00    +0.000 A 
ATOM     39  C29 UNL     1      62.128  55.497  72.780  0.00  0.00    +0.000 A 
ATOM     40  C30 UNL     1      62.069  56.800  72.285  0.00  0.00    +0.000 A 
ATOM     41  H21 UNL     1      63.496  59.655  71.687  0.00  0.00    +0.000 HD
ENDBRANCH  31  32
ENDBRANCH  30  31
ENDBRANCH  19  30
TORSDOF 5
ENDMDL
