MODEL 1
REMARK VINA RESULT:    -8.869      0.000      0.000
REMARK INTER + INTRA:         -13.044
REMARK INTER:                 -11.462
REMARK INTRA:                  -1.582
REMARK UNBOUND:                -1.582
REMARK  Name = CNP0604857_3.pdb
REMARK  5 active torsions:
REMARK  status: ('A' for Active; 'I' for Inactive)
REMARK    1  A    between atoms: C12_14  and  C13_15
REMARK    2  A    between atoms: C17_19  and  N2_20
REMARK    3  A    between atoms: N4_28  and  C21_29
REMARK    4  A    between atoms: C21_29  and  C22_30
REMARK    5  A    between atoms: C22_30  and  C23_31
REMARK                            x       y       z     vdW  Elec       q    Type
REMARK                         _______ _______ _______ _____ _____    ______ ____
ROOT
ATOM      1  O1  UNL     1      63.817  55.818  73.985  0.00  0.00    +0.000 OA
ATOM      2  C1  UNL     1      62.938  54.995  73.606  0.00  0.00    +0.000 C 
ATOM      3  C2  UNL     1      62.203  55.274  72.311  0.00  0.00    +0.000 C 
ATOM      4  C3  UNL     1      61.627  56.706  72.325  0.00  0.00    +0.000 C 
ATOM      5  C4  UNL     1      60.855  56.921  71.069  0.00  0.00    +0.000 A 
ATOM      6  C5  UNL     1      60.229  55.905  70.379  0.00  0.00    +0.000 A 
ATOM      7  N1  UNL     1      59.552  56.389  69.311  0.00  0.00    +0.000 N 
ATOM      8  C6  UNL     1      59.744  57.722  69.344  0.00  0.00    +0.000 A 
ATOM      9  C7  UNL     1      59.225  58.672  68.465  0.00  0.00    +0.000 A 
ATOM     10  C8  UNL     1      59.534  60.025  68.701  0.00  0.00    +0.000 A 
ATOM     11  C9  UNL     1      60.342  60.395  69.800  0.00  0.00    +0.000 A 
ATOM     12  C10 UNL     1      60.850  59.417  70.674  0.00  0.00    +0.000 A 
ATOM     13  C11 UNL     1      60.531  58.086  70.411  0.00  0.00    +0.000 A 
ATOM     14  C12 UNL     1      60.247  54.472  70.831  0.00  0.00    +0.000 C 
ATOM     15  N3  UNL     1      61.138  54.286  72.006  0.00  0.00    +0.000 N 
ATOM     16  C19 UNL     1      61.162  53.009  72.666  0.00  0.00    +0.000 C 
ATOM     17  O4  UNL     1      60.770  51.970  72.069  0.00  0.00    +0.000 OA
ATOM     18  C20 UNL     1      61.565  52.929  74.098  0.00  0.00    +0.000 C 
ATOM     19  N4  UNL     1      62.716  53.789  74.368  0.00  0.00    +0.000 N 
ATOM     20  H4  UNL     1      58.977  55.847  68.628  0.00  0.00    +0.000 HD
ENDROOT
BRANCH  14  21
ATOM     21  C13 UNL     1      58.826  54.062  71.163  0.00  0.00    +0.000 A 
ATOM     22  C14 UNL     1      58.136  53.155  70.340  0.00  0.00    +0.000 A 
ATOM     23  C15 UNL     1      56.835  52.765  70.658  0.00  0.00    +0.000 A 
ATOM     24  C16 UNL     1      56.211  53.265  71.803  0.00  0.00    +0.000 A 
ATOM     25  C17 UNL     1      56.887  54.164  72.648  0.00  0.00    +0.000 A 
ATOM     26  C18 UNL     1      58.197  54.556  72.319  0.00  0.00    +0.000 A 
BRANCH  25  27
ATOM     27  N2  UNL     1      56.250  54.677  73.833  0.00  0.00    +0.000 N 
ATOM     28  O2  UNL     1      55.047  55.014  73.814  0.00  0.00    +0.000 OA
ATOM     29  O3  UNL     1      56.955  54.803  75.008  0.00  0.00    +0.000 OA
ENDBRANCH  25  27
ENDBRANCH  14  21
BRANCH  19  30
ATOM     30  C21 UNL     1      63.547  53.502  75.545  0.00  0.00    +0.000 C 
BRANCH  30  31
ATOM     31  C22 UNL     1      62.906  52.398  76.388  0.00  0.00    +0.000 C 
BRANCH  31  32
ATOM     32  C23 UNL     1      62.482  52.933  77.722  0.00  0.00    +0.000 A 
ATOM     33  C24 UNL     1      63.255  52.998  78.877  0.00  0.00    +0.000 A 
ATOM     34  N5  UNL     1      62.521  53.474  79.909  0.00  0.00    +0.000 N 
ATOM     35  C25 UNL     1      61.290  53.697  79.417  0.00  0.00    +0.000 A 
ATOM     36  C26 UNL     1      60.177  54.174  80.109  0.00  0.00    +0.000 A 
ATOM     37  C27 UNL     1      58.971  54.315  79.399  0.00  0.00    +0.000 A 
ATOM     38  C28 UNL     1      58.904  53.975  78.029  0.00  0.00    +0.000 A 
ATOM     39  C29 UNL     1      60.043  53.494  77.357  0.00  0.00    +0.000 A 
ATOM     40  C30 UNL     1      61.225  53.372  78.088  0.00  0.00    +0.000 A 
ATOM     41  H21 UNL     1      62.846  53.623  80.890  0.00  0.00    +0.000 HD
ENDBRANCH  31  32
ENDBRANCH  30  31
ENDBRANCH  19  30
TORSDOF 5
ENDMDL
MODEL 2
REMARK VINA RESULT:    -8.700      3.885      6.925
REMARK INTER + INTRA:         -12.825
REMARK INTER:                 -11.007
REMARK INTRA:                  -1.818
REMARK UNBOUND:                -1.582
REMARK  Name = CNP0604857_3.pdb
REMARK  5 active torsions:
REMARK  status: ('A' for Active; 'I' for Inactive)
REMARK    1  A    between atoms: C12_14  and  C13_15
REMARK    2  A    between atoms: C17_19  and  N2_20
REMARK    3  A    between atoms: N4_28  and  C21_29
REMARK    4  A    between atoms: C21_29  and  C22_30
REMARK    5  A    between atoms: C22_30  and  C23_31
REMARK                            x       y       z     vdW  Elec       q    Type
REMARK                         _______ _______ _______ _____ _____    ______ ____
ROOT
ATOM      1  O1  UNL     1      59.392  56.865  73.023  0.00  0.00    +0.000 OA
ATOM      2  C1  UNL     1      59.340  57.013  71.771  0.00  0.00    +0.000 C 
ATOM      3  C2  UNL     1      58.244  56.298  71.008  0.00  0.00    +0.000 C 
ATOM      4  C3  UNL     1      58.236  54.798  71.372  0.00  0.00    +0.000 C 
ATOM      5  C4  UNL     1      57.194  54.116  70.555  0.00  0.00    +0.000 A 
ATOM      6  C5  UNL     1      56.801  54.551  69.307  0.00  0.00    +0.000 A 
ATOM      7  N1  UNL     1      55.886  53.713  68.765  0.00  0.00    +0.000 N 
ATOM      8  C6  UNL     1      55.716  52.736  69.678  0.00  0.00    +0.000 A 
ATOM      9  C7  UNL     1      54.890  51.618  69.574  0.00  0.00    +0.000 A 
ATOM     10  C8  UNL     1      54.885  50.702  70.643  0.00  0.00    +0.000 A 
ATOM     11  C9  UNL     1      55.699  50.919  71.778  0.00  0.00    +0.000 A 
ATOM     12  C10 UNL     1      56.527  52.055  71.856  0.00  0.00    +0.000 A 
ATOM     13  C11 UNL     1      56.506  52.945  70.784  0.00  0.00    +0.000 A 
ATOM     14  C12 UNL     1      57.397  55.755  68.631  0.00  0.00    +0.000 C 
ATOM     15  N3  UNL     1      58.328  56.478  69.537  0.00  0.00    +0.000 N 
ATOM     16  C19 UNL     1      59.104  57.567  69.010  0.00  0.00    +0.000 C 
ATOM     17  O4  UNL     1      58.746  58.160  67.957  0.00  0.00    +0.000 OA
ATOM     18  C20 UNL     1      60.391  57.936  69.663  0.00  0.00    +0.000 C 
ATOM     19  N4  UNL     1      60.267  57.908  71.121  0.00  0.00    +0.000 N 
ATOM     20  H4  UNL     1      55.434  53.791  67.828  0.00  0.00    +0.000 HD
ENDROOT
BRANCH  14  21
ATOM     21  C13 UNL     1      58.115  55.288  67.380  0.00  0.00    +0.000 A 
ATOM     22  C14 UNL     1      57.770  55.815  66.124  0.00  0.00    +0.000 A 
ATOM     23  C15 UNL     1      58.445  55.399  64.976  0.00  0.00    +0.000 A 
ATOM     24  C16 UNL     1      59.478  54.464  65.068  0.00  0.00    +0.000 A 
ATOM     25  C17 UNL     1      59.849  53.932  66.317  0.00  0.00    +0.000 A 
ATOM     26  C18 UNL     1      59.160  54.354  67.470  0.00  0.00    +0.000 A 
BRANCH  25  27
ATOM     27  N2  UNL     1      60.917  52.972  66.418  0.00  0.00    +0.000 N 
ATOM     28  O2  UNL     1      61.057  52.082  65.552  0.00  0.00    +0.000 OA
ATOM     29  O3  UNL     1      61.803  53.019  67.470  0.00  0.00    +0.000 OA
ENDBRANCH  25  27
ENDBRANCH  14  21
BRANCH  19  30
ATOM     30  C21 UNL     1      61.227  58.680  71.922  0.00  0.00    +0.000 C 
BRANCH  30  31
ATOM     31  C22 UNL     1      62.657  58.371  71.476  0.00  0.00    +0.000 C 
BRANCH  31  32
ATOM     32  C23 UNL     1      63.258  57.300  72.334  0.00  0.00    +0.000 A 
ATOM     33  C24 UNL     1      64.143  57.480  73.393  0.00  0.00    +0.000 A 
ATOM     34  N5  UNL     1      64.530  56.283  73.891  0.00  0.00    +0.000 N 
ATOM     35  C25 UNL     1      63.907  55.351  73.148  0.00  0.00    +0.000 A 
ATOM     36  C26 UNL     1      64.007  53.966  73.271  0.00  0.00    +0.000 A 
ATOM     37  C27 UNL     1      63.278  53.171  72.368  0.00  0.00    +0.000 A 
ATOM     38  C28 UNL     1      62.478  53.772  71.370  0.00  0.00    +0.000 A 
ATOM     39  C29 UNL     1      62.398  55.173  71.269  0.00  0.00    +0.000 A 
ATOM     40  C30 UNL     1      63.127  55.934  72.183  0.00  0.00    +0.000 A 
ATOM     41  H21 UNL     1      65.190  56.120  74.684  0.00  0.00    +0.000 HD
ENDBRANCH  31  32
ENDBRANCH  30  31
ENDBRANCH  19  30
TORSDOF 5
ENDMDL
MODEL 3
REMARK VINA RESULT:    -8.649      2.078      8.446
REMARK INTER + INTRA:         -12.759
REMARK INTER:                 -11.286
REMARK INTRA:                  -1.473
REMARK UNBOUND:                -1.582
REMARK  Name = CNP0604857_3.pdb
REMARK  5 active torsions:
REMARK  status: ('A' for Active; 'I' for Inactive)
REMARK    1  A    between atoms: C12_14  and  C13_15
REMARK    2  A    between atoms: C17_19  and  N2_20
REMARK    3  A    between atoms: N4_28  and  C21_29
REMARK    4  A    between atoms: C21_29  and  C22_30
REMARK    5  A    between atoms: C22_30  and  C23_31
REMARK                            x       y       z     vdW  Elec       q    Type
REMARK                         _______ _______ _______ _____ _____    ______ ____
ROOT
ATOM      1  O1  UNL     1      56.896  52.375  72.610  0.00  0.00    +0.000 OA
ATOM      2  C1  UNL     1      58.073  52.702  72.291  0.00  0.00    +0.000 C 
ATOM      3  C2  UNL     1      59.147  52.652  73.358  0.00  0.00    +0.000 C 
ATOM      4  C3  UNL     1      58.692  53.438  74.605  0.00  0.00    +0.000 C 
ATOM      5  C4  UNL     1      59.797  53.427  75.604  0.00  0.00    +0.000 A 
ATOM      6  C5  UNL     1      61.129  53.337  75.263  0.00  0.00    +0.000 A 
ATOM      7  N1  UNL     1      61.918  53.409  76.361  0.00  0.00    +0.000 N 
ATOM      8  C6  UNL     1      61.071  53.562  77.397  0.00  0.00    +0.000 A 
ATOM      9  C7  UNL     1      61.401  53.711  78.743  0.00  0.00    +0.000 A 
ATOM     10  C8  UNL     1      60.350  53.884  79.664  0.00  0.00    +0.000 A 
ATOM     11  C9  UNL     1      59.008  53.908  79.223  0.00  0.00    +0.000 A 
ATOM     12  C10 UNL     1      58.702  53.759  77.857  0.00  0.00    +0.000 A 
ATOM     13  C11 UNL     1      59.764  53.584  76.972  0.00  0.00    +0.000 A 
ATOM     14  C12 UNL     1      61.609  53.256  73.841  0.00  0.00    +0.000 C 
ATOM     15  N3  UNL     1      60.472  53.133  72.892  0.00  0.00    +0.000 N 
ATOM     16  C19 UNL     1      60.734  53.196  71.479  0.00  0.00    +0.000 C 
ATOM     17  O4  UNL     1      61.889  52.962  71.030  0.00  0.00    +0.000 OA
ATOM     18  C20 UNL     1      59.655  53.632  70.550  0.00  0.00    +0.000 C 
ATOM     19  N4  UNL     1      58.372  53.033  70.918  0.00  0.00    +0.000 N 
ATOM     20  H4  UNL     1      62.962  53.386  76.392  0.00  0.00    +0.000 HD
ENDROOT
BRANCH  14  21
ATOM     21  C13 UNL     1      62.425  54.499  73.546  0.00  0.00    +0.000 A 
ATOM     22  C14 UNL     1      63.828  54.464  73.623  0.00  0.00    +0.000 A 
ATOM     23  C15 UNL     1      64.578  55.604  73.332  0.00  0.00    +0.000 A 
ATOM     24  C16 UNL     1      63.941  56.787  72.951  0.00  0.00    +0.000 A 
ATOM     25  C17 UNL     1      62.538  56.841  72.855  0.00  0.00    +0.000 A 
ATOM     26  C18 UNL     1      61.788  55.689  73.153  0.00  0.00    +0.000 A 
BRANCH  25  27
ATOM     27  N2  UNL     1      61.877  58.057  72.456  0.00  0.00    +0.000 N 
ATOM     28  O2  UNL     1      62.426  58.849  71.662  0.00  0.00    +0.000 OA
ATOM     29  O3  UNL     1      60.627  58.365  72.942  0.00  0.00    +0.000 OA
ENDBRANCH  25  27
ENDBRANCH  14  21
BRANCH  19  30
ATOM     30  C21 UNL     1      57.322  52.938  69.895  0.00  0.00    +0.000 C 
BRANCH  30  31
ATOM     31  C22 UNL     1      56.608  54.283  69.743  0.00  0.00    +0.000 C 
BRANCH  31  32
ATOM     32  C23 UNL     1      57.262  55.110  68.679  0.00  0.00    +0.000 A 
ATOM     33  C24 UNL     1      57.403  54.777  67.334  0.00  0.00    +0.000 A 
ATOM     34  N5  UNL     1      58.109  55.731  66.685  0.00  0.00    +0.000 N 
ATOM     35  C25 UNL     1      58.426  56.654  67.610  0.00  0.00    +0.000 A 
ATOM     36  C26 UNL     1      59.167  57.820  67.421  0.00  0.00    +0.000 A 
ATOM     37  C27 UNL     1      59.398  58.640  68.540  0.00  0.00    +0.000 A 
ATOM     38  C28 UNL     1      58.894  58.279  69.809  0.00  0.00    +0.000 A 
ATOM     39  C29 UNL     1      58.151  57.095  69.970  0.00  0.00    +0.000 A 
ATOM     40  C30 UNL     1      57.932  56.306  68.840  0.00  0.00    +0.000 A 
ATOM     41  H21 UNL     1      58.365  55.738  65.673  0.00  0.00    +0.000 HD
ENDBRANCH  31  32
ENDBRANCH  30  31
ENDBRANCH  19  30
TORSDOF 5
ENDMDL
MODEL 4
REMARK VINA RESULT:    -8.338      4.935      7.393
REMARK INTER + INTRA:         -12.358
REMARK INTER:                 -11.102
REMARK INTRA:                  -1.256
REMARK UNBOUND:                -1.582
REMARK  Name = CNP0604857_3.pdb
REMARK  5 active torsions:
REMARK  status: ('A' for Active; 'I' for Inactive)
REMARK    1  A    between atoms: C12_14  and  C13_15
REMARK    2  A    between atoms: C17_19  and  N2_20
REMARK    3  A    between atoms: N4_28  and  C21_29
REMARK    4  A    between atoms: C21_29  and  C22_30
REMARK    5  A    between atoms: C22_30  and  C23_31
REMARK                            x       y       z     vdW  Elec       q    Type
REMARK                         _______ _______ _______ _____ _____    ______ ____
ROOT
ATOM      1  O1  UNL     1      59.306  58.145  67.223  0.00  0.00    +0.000 OA
ATOM      2  C1  UNL     1      59.255  56.924  67.538  0.00  0.00    +0.000 C 
ATOM      3  C2  UNL     1      59.352  55.893  66.433  0.00  0.00    +0.000 C 
ATOM      4  C3  UNL     1      58.325  56.205  65.325  0.00  0.00    +0.000 C 
ATOM      5  C4  UNL     1      58.400  55.135  64.291  0.00  0.00    +0.000 A 
ATOM      6  C5  UNL     1      58.786  53.840  64.563  0.00  0.00    +0.000 A 
ATOM      7  N1  UNL     1      58.707  53.066  63.456  0.00  0.00    +0.000 N 
ATOM      8  C6  UNL     1      58.252  53.881  62.485  0.00  0.00    +0.000 A 
ATOM      9  C7  UNL     1      57.976  53.545  61.160  0.00  0.00    +0.000 A 
ATOM     10  C8  UNL     1      57.480  54.555  60.315  0.00  0.00    +0.000 A 
ATOM     11  C9  UNL     1      57.267  55.863  60.807  0.00  0.00    +0.000 A 
ATOM     12  C10 UNL     1      57.550  56.175  62.150  0.00  0.00    +0.000 A 
ATOM     13  C11 UNL     1      58.045  55.155  62.961  0.00  0.00    +0.000 A 
ATOM     14  C12 UNL     1      59.158  53.367  65.941  0.00  0.00    +0.000 C 
ATOM     15  N3  UNL     1      59.200  54.495  66.908  0.00  0.00    +0.000 N 
ATOM     16  C19 UNL     1      59.390  54.207  68.304  0.00  0.00    +0.000 C 
ATOM     17  O4  UNL     1      59.898  53.113  68.671  0.00  0.00    +0.000 OA
ATOM     18  C20 UNL     1      58.897  55.172  69.327  0.00  0.00    +0.000 C 
ATOM     19  N4  UNL     1      59.185  56.550  68.931  0.00  0.00    +0.000 N 
ATOM     20  H4  UNL     1      58.921  52.047  63.380  0.00  0.00    +0.000 HD
ENDROOT
BRANCH  14  21
ATOM     21  C13 UNL     1      58.145  52.324  66.372  0.00  0.00    +0.000 A 
ATOM     22  C14 UNL     1      58.535  50.986  66.555  0.00  0.00    +0.000 A 
ATOM     23  C15 UNL     1      57.606  50.033  66.971  0.00  0.00    +0.000 A 
ATOM     24  C16 UNL     1      56.282  50.402  67.219  0.00  0.00    +0.000 A 
ATOM     25  C17 UNL     1      55.872  51.738  67.055  0.00  0.00    +0.000 A 
ATOM     26  C18 UNL     1      56.814  52.694  66.631  0.00  0.00    +0.000 A 
BRANCH  25  27
ATOM     27  N2  UNL     1      54.511  52.125  67.316  0.00  0.00    +0.000 N 
ATOM     28  O2  UNL     1      54.229  52.835  68.304  0.00  0.00    +0.000 OA
ATOM     29  O3  UNL     1      53.495  51.720  66.480  0.00  0.00    +0.000 OA
ENDBRANCH  25  27
ENDBRANCH  14  21
BRANCH  19  30
ATOM     30  C21 UNL     1      59.227  57.586  69.972  0.00  0.00    +0.000 C 
BRANCH  30  31
ATOM     31  C22 UNL     1      59.690  56.983  71.299  0.00  0.00    +0.000 C 
BRANCH  31  32
ATOM     32  C23 UNL     1      61.050  57.496  71.665  0.00  0.00    +0.000 A 
ATOM     33  C24 UNL     1      61.578  58.746  71.359  0.00  0.00    +0.000 A 
ATOM     34  N5  UNL     1      62.859  58.834  71.786  0.00  0.00    +0.000 N 
ATOM     35  C25 UNL     1      63.146  57.646  72.347  0.00  0.00    +0.000 A 
ATOM     36  C26 UNL     1      64.356  57.250  72.915  0.00  0.00    +0.000 A 
ATOM     37  C27 UNL     1      64.445  55.943  73.429  0.00  0.00    +0.000 A 
ATOM     38  C28 UNL     1      63.336  55.070  73.361  0.00  0.00    +0.000 A 
ATOM     39  C29 UNL     1      62.128  55.497  72.780  0.00  0.00    +0.000 A 
ATOM     40  C30 UNL     1      62.069  56.800  72.285  0.00  0.00    +0.000 A 
ATOM     41  H21 UNL     1      63.496  59.655  71.687  0.00  0.00    +0.000 HD
ENDBRANCH  31  32
ENDBRANCH  30  31
ENDBRANCH  19  30
TORSDOF 5
ENDMDL
MODEL 5
REMARK VINA RESULT:    -8.326      3.242      5.512
REMARK INTER + INTRA:         -12.342
REMARK INTER:                 -11.832
REMARK INTRA:                  -0.511
REMARK UNBOUND:                -1.582
REMARK  Name = CNP0604857_3.pdb
REMARK  5 active torsions:
REMARK  status: ('A' for Active; 'I' for Inactive)
REMARK    1  A    between atoms: C12_14  and  C13_15
REMARK    2  A    between atoms: C17_19  and  N2_20
REMARK    3  A    between atoms: N4_28  and  C21_29
REMARK    4  A    between atoms: C21_29  and  C22_30
REMARK    5  A    between atoms: C22_30  and  C23_31
REMARK                            x       y       z     vdW  Elec       q    Type
REMARK                         _______ _______ _______ _____ _____    ______ ____
ROOT
ATOM      1  O1  UNL     1      57.327  52.089  71.985  0.00  0.00    +0.000 OA
ATOM      2  C1  UNL     1      57.500  53.335  72.092  0.00  0.00    +0.000 C 
ATOM      3  C2  UNL     1      57.317  54.194  70.858  0.00  0.00    +0.000 C 
ATOM      4  C3  UNL     1      58.159  53.633  69.692  0.00  0.00    +0.000 C 
ATOM      5  C4  UNL     1      58.010  54.539  68.519  0.00  0.00    +0.000 A 
ATOM      6  C5  UNL     1      57.749  55.888  68.628  0.00  0.00    +0.000 A 
ATOM      7  N1  UNL     1      57.725  56.478  67.410  0.00  0.00    +0.000 N 
ATOM      8  C6  UNL     1      57.988  55.491  66.532  0.00  0.00    +0.000 A 
ATOM      9  C7  UNL     1      58.098  55.600  65.146  0.00  0.00    +0.000 A 
ATOM     10  C8  UNL     1      58.407  54.436  64.417  0.00  0.00    +0.000 A 
ATOM     11  C9  UNL     1      58.601  53.204  65.081  0.00  0.00    +0.000 A 
ATOM     12  C10 UNL     1      58.488  53.122  66.482  0.00  0.00    +0.000 A 
ATOM     13  C11 UNL     1      58.176  54.290  67.175  0.00  0.00    +0.000 A 
ATOM     14  C12 UNL     1      57.604  56.592  69.948  0.00  0.00    +0.000 C 
ATOM     15  N3  UNL     1      57.624  55.629  71.081  0.00  0.00    +0.000 N 
ATOM     16  C19 UNL     1      57.647  56.137  72.425  0.00  0.00    +0.000 C 
ATOM     17  O4  UNL     1      57.266  57.313  72.674  0.00  0.00    +0.000 OA
ATOM     18  C20 UNL     1      58.214  55.299  73.518  0.00  0.00    +0.000 C 
ATOM     19  N4  UNL     1      57.786  53.906  73.387  0.00  0.00    +0.000 N 
ATOM     20  H4  UNL     1      57.568  57.489  67.200  0.00  0.00    +0.000 HD
ENDROOT
BRANCH  14  21
ATOM     21  C13 UNL     1      58.731  57.597  70.076  0.00  0.00    +0.000 A 
ATOM     22  C14 UNL     1      59.906  57.264  70.772  0.00  0.00    +0.000 A 
ATOM     23  C15 UNL     1      60.950  58.184  70.871  0.00  0.00    +0.000 A 
ATOM     24  C16 UNL     1      60.841  59.440  70.270  0.00  0.00    +0.000 A 
ATOM     25  C17 UNL     1      59.679  59.790  69.557  0.00  0.00    +0.000 A 
ATOM     26  C18 UNL     1      58.629  58.859  69.465  0.00  0.00    +0.000 A 
BRANCH  25  27
ATOM     27  N2  UNL     1      59.565  61.081  68.930  0.00  0.00    +0.000 N 
ATOM     28  O2  UNL     1      60.268  61.372  67.940  0.00  0.00    +0.000 OA
ATOM     29  O3  UNL     1      58.677  62.016  69.410  0.00  0.00    +0.000 OA
ENDBRANCH  25  27
ENDBRANCH  14  21
BRANCH  19  30
ATOM     30  C21 UNL     1      57.822  53.045  74.577  0.00  0.00    +0.000 C 
BRANCH  30  31
ATOM     31  C22 UNL     1      57.946  53.896  75.842  0.00  0.00    +0.000 C 
BRANCH  31  32
ATOM     32  C23 UNL     1      59.288  53.700  76.479  0.00  0.00    +0.000 A 
ATOM     33  C24 UNL     1      60.449  53.252  75.855  0.00  0.00    +0.000 A 
ATOM     34  N5  UNL     1      61.450  53.129  76.756  0.00  0.00    +0.000 N 
ATOM     35  C25 UNL     1      60.927  53.482  77.944  0.00  0.00    +0.000 A 
ATOM     36  C26 UNL     1      61.572  53.498  79.180  0.00  0.00    +0.000 A 
ATOM     37  C27 UNL     1      60.824  53.884  80.307  0.00  0.00    +0.000 A 
ATOM     38  C28 UNL     1      59.463  54.238  80.176  0.00  0.00    +0.000 A 
ATOM     39  C29 UNL     1      58.838  54.211  78.915  0.00  0.00    +0.000 A 
ATOM     40  C30 UNL     1      59.608  53.829  77.816  0.00  0.00    +0.000 A 
ATOM     41  H21 UNL     1      62.426  52.811  76.566  0.00  0.00    +0.000 HD
ENDBRANCH  31  32
ENDBRANCH  30  31
ENDBRANCH  19  30
TORSDOF 5
ENDMDL
MODEL 6
REMARK VINA RESULT:    -8.231      2.452      5.412
REMARK INTER + INTRA:         -12.220
REMARK INTER:                 -11.502
REMARK INTRA:                  -0.717
REMARK UNBOUND:                -1.582
REMARK  Name = CNP0604857_3.pdb
REMARK  5 active torsions:
REMARK  status: ('A' for Active; 'I' for Inactive)
REMARK    1  A    between atoms: C12_14  and  C13_15
REMARK    2  A    between atoms: C17_19  and  N2_20
REMARK    3  A    between atoms: N4_28  and  C21_29
REMARK    4  A    between atoms: C21_29  and  C22_30
REMARK    5  A    between atoms: C22_30  and  C23_31
REMARK                            x       y       z     vdW  Elec       q    Type
REMARK                         _______ _______ _______ _____ _____    ______ ____
ROOT
ATOM      1  O1  UNL     1      56.052  52.661  72.316  0.00  0.00    +0.000 OA
ATOM      2  C1  UNL     1      56.598  53.786  72.493  0.00  0.00    +0.000 C 
ATOM      3  C2  UNL     1      56.735  54.713  71.303  0.00  0.00    +0.000 C 
ATOM      4  C3  UNL     1      57.404  53.971  70.127  0.00  0.00    +0.000 C 
ATOM      5  C4  UNL     1      57.585  54.929  69.001  0.00  0.00    +0.000 A 
ATOM      6  C5  UNL     1      57.751  56.286  69.177  0.00  0.00    +0.000 A 
ATOM      7  N1  UNL     1      57.954  56.909  67.993  0.00  0.00    +0.000 N 
ATOM      8  C6  UNL     1      57.930  55.929  67.068  0.00  0.00    +0.000 A 
ATOM      9  C7  UNL     1      58.119  56.061  65.693  0.00  0.00    +0.000 A 
ATOM     10  C8  UNL     1      58.079  54.892  64.909  0.00  0.00    +0.000 A 
ATOM     11  C9  UNL     1      57.858  53.632  65.510  0.00  0.00    +0.000 A 
ATOM     12  C10 UNL     1      57.674  53.527  66.901  0.00  0.00    +0.000 A 
ATOM     13  C11 UNL     1      57.714  54.702  67.650  0.00  0.00    +0.000 A 
ATOM     14  C12 UNL     1      57.782  56.941  70.530  0.00  0.00    +0.000 C 
ATOM     15  N3  UNL     1      57.462  55.971  71.609  0.00  0.00    +0.000 N 
ATOM     16  C19 UNL     1      57.593  56.385  72.980  0.00  0.00    +0.000 C 
ATOM     17  O4  UNL     1      57.586  57.609  73.283  0.00  0.00    +0.000 OA
ATOM     18  C20 UNL     1      57.832  55.364  74.037  0.00  0.00    +0.000 C 
ATOM     19  N4  UNL     1      56.999  54.181  73.822  0.00  0.00    +0.000 N 
ATOM     20  H4  UNL     1      58.125  57.927  67.834  0.00  0.00    +0.000 HD
ENDROOT
BRANCH  14  21
ATOM     21  C13 UNL     1      59.160  57.540  70.735  0.00  0.00    +0.000 A 
ATOM     22  C14 UNL     1      59.451  58.832  70.264  0.00  0.00    +0.000 A 
ATOM     23  C15 UNL     1      60.714  59.388  70.471  0.00  0.00    +0.000 A 
ATOM     24  C16 UNL     1      61.696  58.669  71.156  0.00  0.00    +0.000 A 
ATOM     25  C17 UNL     1      61.422  57.379  71.647  0.00  0.00    +0.000 A 
ATOM     26  C18 UNL     1      60.147  56.823  71.432  0.00  0.00    +0.000 A 
BRANCH  25  27
ATOM     27  N2  UNL     1      62.428  56.636  72.360  0.00  0.00    +0.000 N 
ATOM     28  O2  UNL     1      63.046  55.704  71.802  0.00  0.00    +0.000 OA
ATOM     29  O3  UNL     1      62.728  56.941  73.667  0.00  0.00    +0.000 OA
ENDBRANCH  25  27
ENDBRANCH  14  21
BRANCH  19  30
ATOM     30  C21 UNL     1      56.724  53.299  74.965  0.00  0.00    +0.000 C 
BRANCH  30  31
ATOM     31  C22 UNL     1      58.003  53.064  75.772  0.00  0.00    +0.000 C 
BRANCH  31  32
ATOM     32  C23 UNL     1      57.856  53.608  77.160  0.00  0.00    +0.000 A 
ATOM     33  C24 UNL     1      56.708  54.157  77.723  0.00  0.00    +0.000 A 
ATOM     34  N5  UNL     1      56.965  54.609  78.972  0.00  0.00    +0.000 N 
ATOM     35  C25 UNL     1      58.268  54.362  79.196  0.00  0.00    +0.000 A 
ATOM     36  C26 UNL     1      59.001  54.666  80.342  0.00  0.00    +0.000 A 
ATOM     37  C27 UNL     1      60.368  54.334  80.356  0.00  0.00    +0.000 A 
ATOM     38  C28 UNL     1      60.966  53.716  79.235  0.00  0.00    +0.000 A 
ATOM     39  C29 UNL     1      60.201  53.423  78.091  0.00  0.00    +0.000 A 
ATOM     40  C30 UNL     1      58.847  53.758  78.110  0.00  0.00    +0.000 A 
ATOM     41  H21 UNL     1      56.289  55.069  79.621  0.00  0.00    +0.000 HD
ENDBRANCH  31  32
ENDBRANCH  30  31
ENDBRANCH  19  30
TORSDOF 5
ENDMDL
MODEL 7
REMARK VINA RESULT:    -7.908      4.507      8.303
REMARK INTER + INTRA:         -11.802
REMARK INTER:                 -10.866
REMARK INTRA:                  -0.935
REMARK UNBOUND:                -1.582
REMARK  Name = CNP0604857_3.pdb
REMARK  5 active torsions:
REMARK  status: ('A' for Active; 'I' for Inactive)
REMARK    1  A    between atoms: C12_14  and  C13_15
REMARK    2  A    between atoms: C17_19  and  N2_20
REMARK    3  A    between atoms: N4_28  and  C21_29
REMARK    4  A    between atoms: C21_29  and  C22_30
REMARK    5  A    between atoms: C22_30  and  C23_31
REMARK                            x       y       z     vdW  Elec       q    Type
REMARK                         _______ _______ _______ _____ _____    ______ ____
ROOT
ATOM      1  O1  UNL     1      56.855  55.572  71.589  0.00  0.00    +0.000 OA
ATOM      2  C1  UNL     1      57.289  55.692  70.410  0.00  0.00    +0.000 C 
ATOM      3  C2  UNL     1      56.672  54.832  69.327  0.00  0.00    +0.000 C 
ATOM      4  C3  UNL     1      56.684  53.349  69.755  0.00  0.00    +0.000 C 
ATOM      5  C4  UNL     1      56.134  52.528  68.641  0.00  0.00    +0.000 A 
ATOM      6  C5  UNL     1      56.224  52.889  67.313  0.00  0.00    +0.000 A 
ATOM      7  N1  UNL     1      55.697  51.934  66.512  0.00  0.00    +0.000 N 
ATOM      8  C6  UNL     1      55.287  50.958  67.347  0.00  0.00    +0.000 A 
ATOM      9  C7  UNL     1      54.698  49.742  67.000  0.00  0.00    +0.000 A 
ATOM     10  C8  UNL     1      54.369  48.851  68.039  0.00  0.00    +0.000 A 
ATOM     11  C9  UNL     1      54.638  49.188  69.385  0.00  0.00    +0.000 A 
ATOM     12  C10 UNL     1      55.236  50.420  69.707  0.00  0.00    +0.000 A 
ATOM     13  C11 UNL     1      55.545  51.283  68.658  0.00  0.00    +0.000 A 
ATOM     14  C12 UNL     1      56.903  54.147  66.849  0.00  0.00    +0.000 C 
ATOM     15  N3  UNL     1      57.312  54.997  67.998  0.00  0.00    +0.000 N 
ATOM     16  C19 UNL     1      58.109  56.168  67.748  0.00  0.00    +0.000 C 
ATOM     17  O4  UNL     1      58.136  56.693  66.602  0.00  0.00    +0.000 OA
ATOM     18  C20 UNL     1      58.982  56.707  68.828  0.00  0.00    +0.000 C 
ATOM     19  N4  UNL     1      58.293  56.687  70.118  0.00  0.00    +0.000 N 
ATOM     20  H4  UNL     1      55.649  51.938  65.470  0.00  0.00    +0.000 HD
ENDROOT
BRANCH  14  21
ATOM     21  C13 UNL     1      58.105  53.756  66.013  0.00  0.00    +0.000 A 
ATOM     22  C14 UNL     1      59.282  53.298  66.630  0.00  0.00    +0.000 A 
ATOM     23  C15 UNL     1      60.380  52.919  65.858  0.00  0.00    +0.000 A 
ATOM     24  C16 UNL     1      60.316  52.982  64.464  0.00  0.00    +0.000 A 
ATOM     25  C17 UNL     1      59.144  53.426  63.825  0.00  0.00    +0.000 A 
ATOM     26  C18 UNL     1      58.041  53.809  64.610  0.00  0.00    +0.000 A 
BRANCH  25  27
ATOM     27  N2  UNL     1      59.070  53.487  62.388  0.00  0.00    +0.000 N 
ATOM     28  O2  UNL     1      59.944  52.940  61.682  0.00  0.00    +0.000 OA
ATOM     29  O3  UNL     1      58.034  54.147  61.768  0.00  0.00    +0.000 OA
ENDBRANCH  25  27
ENDBRANCH  14  21
BRANCH  19  30
ATOM     30  C21 UNL     1      58.765  57.587  71.180  0.00  0.00    +0.000 C 
BRANCH  30  31
ATOM     31  C22 UNL     1      59.639  56.819  72.174  0.00  0.00    +0.000 C 
BRANCH  31  32
ATOM     32  C23 UNL     1      61.026  57.386  72.203  0.00  0.00    +0.000 A 
ATOM     33  C24 UNL     1      61.436  58.610  71.682  0.00  0.00    +0.000 A 
ATOM     34  N5  UNL     1      62.773  58.758  71.826  0.00  0.00    +0.000 N 
ATOM     35  C25 UNL     1      63.210  57.634  72.421  0.00  0.00    +0.000 A 
ATOM     36  C26 UNL     1      64.524  57.313  72.761  0.00  0.00    +0.000 A 
ATOM     37  C27 UNL     1      64.762  56.064  73.362  0.00  0.00    +0.000 A 
ATOM     38  C28 UNL     1      63.693  55.171  73.604  0.00  0.00    +0.000 A 
ATOM     39  C29 UNL     1      62.378  55.521  73.248  0.00  0.00    +0.000 A 
ATOM     40  C30 UNL     1      62.174  56.769  72.660  0.00  0.00    +0.000 A 
ATOM     41  H21 UNL     1      63.347  59.576  71.523  0.00  0.00    +0.000 HD
ENDBRANCH  31  32
ENDBRANCH  30  31
ENDBRANCH  19  30
TORSDOF 5
ENDMDL
MODEL 8
REMARK VINA RESULT:    -7.864      3.234      8.458
REMARK INTER + INTRA:         -11.746
REMARK INTER:                 -10.041
REMARK INTRA:                  -1.705
REMARK UNBOUND:                -1.582
REMARK  Name = CNP0604857_3.pdb
REMARK  5 active torsions:
REMARK  status: ('A' for Active; 'I' for Inactive)
REMARK    1  A    between atoms: C12_14  and  C13_15
REMARK    2  A    between atoms: C17_19  and  N2_20
REMARK    3  A    between atoms: N4_28  and  C21_29
REMARK    4  A    between atoms: C21_29  and  C22_30
REMARK    5  A    between atoms: C22_30  and  C23_31
REMARK                            x       y       z     vdW  Elec       q    Type
REMARK                         _______ _______ _______ _____ _____    ______ ____
ROOT
ATOM      1  O1  UNL     1      61.502  55.257  67.184  0.00  0.00    +0.000 OA
ATOM      2  C1  UNL     1      60.659  55.808  67.945  0.00  0.00    +0.000 C 
ATOM      3  C2  UNL     1      60.990  55.922  69.419  0.00  0.00    +0.000 C 
ATOM      4  C3  UNL     1      61.399  54.544  69.979  0.00  0.00    +0.000 C 
ATOM      5  C4  UNL     1      61.650  54.679  71.441  0.00  0.00    +0.000 A 
ATOM      6  C5  UNL     1      61.025  55.617  72.236  0.00  0.00    +0.000 A 
ATOM      7  N1  UNL     1      61.391  55.478  73.531  0.00  0.00    +0.000 N 
ATOM      8  C6  UNL     1      62.242  54.433  73.549  0.00  0.00    +0.000 A 
ATOM      9  C7  UNL     1      62.875  53.878  74.661  0.00  0.00    +0.000 A 
ATOM     10  C8  UNL     1      63.710  52.764  74.455  0.00  0.00    +0.000 A 
ATOM     11  C9  UNL     1      63.888  52.231  73.158  0.00  0.00    +0.000 A 
ATOM     12  C10 UNL     1      63.234  52.808  72.053  0.00  0.00    +0.000 A 
ATOM     13  C11 UNL     1      62.418  53.914  72.289  0.00  0.00    +0.000 A 
ATOM     14  C12 UNL     1      60.010  56.594  71.710  0.00  0.00    +0.000 C 
ATOM     15  N3  UNL     1      59.896  56.512  70.230  0.00  0.00    +0.000 N 
ATOM     16  C19 UNL     1      58.866  57.267  69.570  0.00  0.00    +0.000 C 
ATOM     17  O4  UNL     1      58.335  58.260  70.135  0.00  0.00    +0.000 OA
ATOM     18  C20 UNL     1      58.358  56.814  68.244  0.00  0.00    +0.000 C 
ATOM     19  N4  UNL     1      59.456  56.374  67.384  0.00  0.00    +0.000 N 
ATOM     20  H4  UNL     1      61.059  56.040  74.346  0.00  0.00    +0.000 HD
ENDROOT
BRANCH  14  21
ATOM     21  C13 UNL     1      58.679  56.295  72.371  0.00  0.00    +0.000 A 
ATOM     22  C14 UNL     1      58.048  57.264  73.170  0.00  0.00    +0.000 A 
ATOM     23  C15 UNL     1      56.814  56.994  73.761  0.00  0.00    +0.000 A 
ATOM     24  C16 UNL     1      56.190  55.762  73.556  0.00  0.00    +0.000 A 
ATOM     25  C17 UNL     1      56.797  54.781  72.750  0.00  0.00    +0.000 A 
ATOM     26  C18 UNL     1      58.044  55.059  72.159  0.00  0.00    +0.000 A 
BRANCH  25  27
ATOM     27  N2  UNL     1      56.155  53.512  72.529  0.00  0.00    +0.000 N 
ATOM     28  O2  UNL     1      55.181  53.161  73.228  0.00  0.00    +0.000 OA
ATOM     29  O3  UNL     1      56.603  52.662  71.544  0.00  0.00    +0.000 OA
ENDBRANCH  25  27
ENDBRANCH  14  21
BRANCH  19  30
ATOM     30  C21 UNL     1      59.245  56.354  65.930  0.00  0.00    +0.000 C 
BRANCH  30  31
ATOM     31  C22 UNL     1      57.796  55.976  65.612  0.00  0.00    +0.000 C 
BRANCH  31  32
ATOM     32  C23 UNL     1      57.688  54.512  65.311  0.00  0.00    +0.000 A 
ATOM     33  C24 UNL     1      58.003  53.884  64.110  0.00  0.00    +0.000 A 
ATOM     34  N5  UNL     1      57.713  52.564  64.179  0.00  0.00    +0.000 N 
ATOM     35  C25 UNL     1      57.207  52.358  65.408  0.00  0.00    +0.000 A 
ATOM     36  C26 UNL     1      56.745  51.156  65.941  0.00  0.00    +0.000 A 
ATOM     37  C27 UNL     1      56.233  51.171  67.251  0.00  0.00    +0.000 A 
ATOM     38  C28 UNL     1      56.190  52.375  67.989  0.00  0.00    +0.000 A 
ATOM     39  C29 UNL     1      56.661  53.575  67.423  0.00  0.00    +0.000 A 
ATOM     40  C30 UNL     1      57.169  53.526  66.125  0.00  0.00    +0.000 A 
ATOM     41  H21 UNL     1      57.845  51.855  63.424  0.00  0.00    +0.000 HD
ENDBRANCH  31  32
ENDBRANCH  30  31
ENDBRANCH  19  30
TORSDOF 5
ENDMDL
MODEL 9
REMARK VINA RESULT:    -7.722      4.097      9.481
REMARK INTER + INTRA:         -11.561
REMARK INTER:                 -10.277
REMARK INTRA:                  -1.284
REMARK UNBOUND:                -1.582
REMARK  Name = CNP0604857_3.pdb
REMARK  5 active torsions:
REMARK  status: ('A' for Active; 'I' for Inactive)
REMARK    1  A    between atoms: C12_14  and  C13_15
REMARK    2  A    between atoms: C17_19  and  N2_20
REMARK    3  A    between atoms: N4_28  and  C21_29
REMARK    4  A    between atoms: C21_29  and  C22_30
REMARK    5  A    between atoms: C22_30  and  C23_31
REMARK                            x       y       z     vdW  Elec       q    Type
REMARK                         _______ _______ _______ _____ _____    ______ ____
ROOT
ATOM      1  O1  UNL     1      61.431  55.710  67.181  0.00  0.00    +0.000 OA
ATOM      2  C1  UNL     1      60.564  56.180  67.969  0.00  0.00    +0.000 C 
ATOM      3  C2  UNL     1      60.886  56.223  69.449  0.00  0.00    +0.000 C 
ATOM      4  C3  UNL     1      61.353  54.834  69.931  0.00  0.00    +0.000 C 
ATOM      5  C4  UNL     1      61.595  54.897  71.400  0.00  0.00    +0.000 A 
ATOM      6  C5  UNL     1      60.929  55.760  72.244  0.00  0.00    +0.000 A 
ATOM      7  N1  UNL     1      61.298  55.563  73.531  0.00  0.00    +0.000 N 
ATOM      8  C6  UNL     1      62.193  54.556  73.493  0.00  0.00    +0.000 A 
ATOM      9  C7  UNL     1      62.847  53.966  74.574  0.00  0.00    +0.000 A 
ATOM     10  C8  UNL     1      63.730  52.902  74.308  0.00  0.00    +0.000 A 
ATOM     11  C9  UNL     1      63.933  52.453  72.983  0.00  0.00    +0.000 A 
ATOM     12  C10 UNL     1      63.257  53.063  71.911  0.00  0.00    +0.000 A 
ATOM     13  C11 UNL     1      62.395  54.118  72.205  0.00  0.00    +0.000 A 
ATOM     14  C12 UNL     1      59.874  56.720  71.770  0.00  0.00    +0.000 C 
ATOM     15  N3  UNL     1      59.766  56.718  70.287  0.00  0.00    +0.000 N 
ATOM     16  C19 UNL     1      58.706  57.465  69.666  0.00  0.00    +0.000 C 
ATOM     17  O4  UNL     1      58.131  58.400  70.286  0.00  0.00    +0.000 OA
ATOM     18  C20 UNL     1      58.221  57.067  68.315  0.00  0.00    +0.000 C 
ATOM     19  N4  UNL     1      59.339  56.725  67.436  0.00  0.00    +0.000 N 
ATOM     20  H4  UNL     1      60.941  56.062  74.375  0.00  0.00    +0.000 HD
ENDROOT
BRANCH  14  21
ATOM     21  C13 UNL     1      58.556  56.327  72.407  0.00  0.00    +0.000 A 
ATOM     22  C14 UNL     1      57.885  57.219  73.262  0.00  0.00    +0.000 A 
ATOM     23  C15 UNL     1      56.662  56.863  73.831  0.00  0.00    +0.000 A 
ATOM     24  C16 UNL     1      56.090  55.621  73.548  0.00  0.00    +0.000 A 
ATOM     25  C17 UNL     1      56.737  54.718  72.685  0.00  0.00    +0.000 A 
ATOM     26  C18 UNL     1      57.972  55.082  72.117  0.00  0.00    +0.000 A 
BRANCH  25  27
ATOM     27  N2  UNL     1      56.148  53.439  72.385  0.00  0.00    +0.000 N 
ATOM     28  O2  UNL     1      56.498  52.799  71.370  0.00  0.00    +0.000 OA
ATOM     29  O3  UNL     1      55.190  52.898  73.211  0.00  0.00    +0.000 OA
ENDBRANCH  25  27
ENDBRANCH  14  21
BRANCH  19  30
ATOM     30  C21 UNL     1      59.131  56.779  65.982  0.00  0.00    +0.000 C 
BRANCH  30  31
ATOM     31  C22 UNL     1      57.813  56.097  65.611  0.00  0.00    +0.000 C 
BRANCH  31  32
ATOM     32  C23 UNL     1      58.064  54.903  64.740  0.00  0.00    +0.000 A 
ATOM     33  C24 UNL     1      58.499  53.648  65.154  0.00  0.00    +0.000 A 
ATOM     34  N5  UNL     1      58.685  52.839  64.086  0.00  0.00    +0.000 N 
ATOM     35  C25 UNL     1      58.384  53.577  63.003  0.00  0.00    +0.000 A 
ATOM     36  C26 UNL     1      58.442  53.181  61.667  0.00  0.00    +0.000 A 
ATOM     37  C27 UNL     1      58.100  54.128  60.685  0.00  0.00    +0.000 A 
ATOM     38  C28 UNL     1      57.717  55.437  61.055  0.00  0.00    +0.000 A 
ATOM     39  C29 UNL     1      57.670  55.809  62.412  0.00  0.00    +0.000 A 
ATOM     40  C30 UNL     1      58.008  54.845  63.362  0.00  0.00    +0.000 A 
ATOM     41  H21 UNL     1      59.010  51.847  64.103  0.00  0.00    +0.000 HD
ENDBRANCH  31  32
ENDBRANCH  30  31
ENDBRANCH  19  30
TORSDOF 5
ENDMDL
MODEL 10
REMARK VINA RESULT:    -7.700      1.752      8.234
REMARK INTER + INTRA:         -11.534
REMARK INTER:                  -9.882
REMARK INTRA:                  -1.651
REMARK UNBOUND:                -1.582
REMARK  Name = CNP0604857_3.pdb
REMARK  5 active torsions:
REMARK  status: ('A' for Active; 'I' for Inactive)
REMARK    1  A    between atoms: C12_14  and  C13_15
REMARK    2  A    between atoms: C17_19  and  N2_20
REMARK    3  A    between atoms: N4_28  and  C21_29
REMARK    4  A    between atoms: C21_29  and  C22_30
REMARK    5  A    between atoms: C22_30  and  C23_31
REMARK                            x       y       z     vdW  Elec       q    Type
REMARK                         _______ _______ _______ _____ _____    ______ ____
ROOT
ATOM      1  O1  UNL     1      56.457  54.611  75.040  0.00  0.00    +0.000 OA
ATOM      2  C1  UNL     1      57.421  54.050  74.448  0.00  0.00    +0.000 C 
ATOM      3  C2  UNL     1      58.409  53.257  75.278  0.00  0.00    +0.000 C 
ATOM      4  C3  UNL     1      58.927  54.116  76.450  0.00  0.00    +0.000 C 
ATOM      5  C4  UNL     1      59.945  53.331  77.202  0.00  0.00    +0.000 A 
ATOM      6  C5  UNL     1      60.735  52.359  76.625  0.00  0.00    +0.000 A 
ATOM      7  N1  UNL     1      61.613  51.850  77.520  0.00  0.00    +0.000 N 
ATOM      8  C6  UNL     1      61.380  52.520  78.665  0.00  0.00    +0.000 A 
ATOM      9  C7  UNL     1      62.049  52.375  79.880  0.00  0.00    +0.000 A 
ATOM     10  C8  UNL     1      61.658  53.202  80.950  0.00  0.00    +0.000 A 
ATOM     11  C9  UNL     1      60.621  54.148  80.783  0.00  0.00    +0.000 A 
ATOM     12  C10 UNL     1      59.964  54.277  79.545  0.00  0.00    +0.000 A 
ATOM     13  C11 UNL     1      60.371  53.440  78.507  0.00  0.00    +0.000 A 
ATOM     14  C12 UNL     1      60.661  52.001  75.166  0.00  0.00    +0.000 C 
ATOM     15  N3  UNL     1      59.543  52.710  74.491  0.00  0.00    +0.000 N 
ATOM     16  C19 UNL     1      59.414  52.604  73.063  0.00  0.00    +0.000 C 
ATOM     17  O4  UNL     1      59.956  51.652  72.438  0.00  0.00    +0.000 OA
ATOM     18  C20 UNL     1      58.714  53.680  72.306  0.00  0.00    +0.000 C 
ATOM     19  N4  UNL     1      57.507  54.115  73.009  0.00  0.00    +0.000 N 
ATOM     20  H4  UNL     1      62.337  51.118  77.350  0.00  0.00    +0.000 HD
ENDROOT
BRANCH  14  21
ATOM     21  C13 UNL     1      61.988  52.354  74.524  0.00  0.00    +0.000 A 
ATOM     22  C14 UNL     1      62.895  51.342  74.162  0.00  0.00    +0.000 A 
ATOM     23  C15 UNL     1      64.107  51.668  73.554  0.00  0.00    +0.000 A 
ATOM     24  C16 UNL     1      64.426  53.002  73.290  0.00  0.00    +0.000 A 
ATOM     25  C17 UNL     1      63.528  54.030  73.633  0.00  0.00    +0.000 A 
ATOM     26  C18 UNL     1      62.309  53.694  74.250  0.00  0.00    +0.000 A 
BRANCH  25  27
ATOM     27  N2  UNL     1      63.849  55.406  73.357  0.00  0.00    +0.000 N 
ATOM     28  O2  UNL     1      63.684  55.882  72.214  0.00  0.00    +0.000 OA
ATOM     29  O3  UNL     1      64.343  56.222  74.349  0.00  0.00    +0.000 OA
ENDBRANCH  25  27
ENDBRANCH  14  21
BRANCH  19  30
ATOM     30  C21 UNL     1      56.450  54.785  72.240  0.00  0.00    +0.000 C 
BRANCH  30  31
ATOM     31  C22 UNL     1      56.632  56.303  72.302  0.00  0.00    +0.000 C 
BRANCH  31  32
ATOM     32  C23 UNL     1      57.683  56.747  71.330  0.00  0.00    +0.000 A 
ATOM     33  C24 UNL     1      57.649  56.607  69.945  0.00  0.00    +0.000 A 
ATOM     34  N5  UNL     1      58.801  57.059  69.398  0.00  0.00    +0.000 N 
ATOM     35  C25 UNL     1      59.565  57.470  70.426  0.00  0.00    +0.000 A 
ATOM     36  C26 UNL     1      60.853  58.000  70.363  0.00  0.00    +0.000 A 
ATOM     37  C27 UNL     1      61.481  58.348  71.572  0.00  0.00    +0.000 A 
ATOM     38  C28 UNL     1      60.817  58.157  72.804  0.00  0.00    +0.000 A 
ATOM     39  C29 UNL     1      59.517  57.618  72.838  0.00  0.00    +0.000 A 
ATOM     40  C30 UNL     1      58.919  57.289  71.621  0.00  0.00    +0.000 A 
ATOM     41  H21 UNL     1      59.048  57.071  68.384  0.00  0.00    +0.000 HD
ENDBRANCH  31  32
ENDBRANCH  30  31
ENDBRANCH  19  30
TORSDOF 5
ENDMDL
