MODEL 1
REMARK VINA RESULT:    -8.110      0.000      0.000
REMARK INTER + INTRA:          -8.110
REMARK INTER:                  -8.110
REMARK INTRA:                   0.000
REMARK UNBOUND:                 0.000
REMARK  Name = CNP0159470_1.pdb
REMARK  0 active torsions:
REMARK  status: ('A' for Active; 'I' for Inactive)
REMARK                            x       y       z     vdW  Elec       q    Type
REMARK                         _______ _______ _______ _____ _____    ______ ____
ROOT
ATOM      1  O1  UNL     1      63.465  57.971  72.451  0.00  0.00    +0.000 OA
ATOM      2  C1  UNL     1      62.459  57.289  72.333  0.00  0.00    +0.000 C 
ATOM      3  C2  UNL     1      62.473  56.093  71.421  0.00  0.00    +0.000 C 
ATOM      4  C3  UNL     1      61.186  55.268  71.570  0.00  0.00    +0.000 C 
ATOM      5  C4  UNL     1      59.902  56.143  71.435  0.00  0.00    +0.000 C 
ATOM      6  C5  UNL     1      58.630  55.366  71.734  0.00  0.00    +0.000 C 
ATOM      7  C6  UNL     1      58.483  54.566  72.797  0.00  0.00    +0.000 C 
ATOM      8  C7  UNL     1      57.269  53.767  73.089  0.00  0.00    +0.000 C 
ATOM      9  O2  UNL     1      56.986  53.579  74.301  0.00  0.00    +0.000 OA
ATOM     10  N1  UNL     1      56.466  53.098  72.092  0.00  0.00    +0.000 N 
ATOM     11  C8  UNL     1      56.538  53.315  70.644  0.00  0.00    +0.000 C 
ATOM     12  C9  UNL     1      55.728  52.254  69.875  0.00  0.00    +0.000 C 
ATOM     13  C10 UNL     1      55.340  52.711  68.452  0.00  0.00    +0.000 C 
ATOM     14  N2  UNL     1      56.489  52.910  67.553  0.00  0.00    +0.000 NA
ATOM     15  C11 UNL     1      57.047  51.643  67.061  0.00  0.00    +0.000 C 
ATOM     16  C12 UNL     1      58.013  51.907  65.900  0.00  0.00    +0.000 C 
ATOM     17  C13 UNL     1      57.288  52.465  64.662  0.00  0.00    +0.000 C 
ATOM     18  C14 UNL     1      58.276  52.934  63.584  0.00  0.00    +0.000 C 
ATOM     19  N3  UNL     1      59.008  54.116  64.034  0.00  0.00    +0.000 N 
ATOM     20  C15 UNL     1      58.367  55.390  64.187  0.00  0.00    +0.000 C 
ATOM     21  O3  UNL     1      57.489  55.750  63.359  0.00  0.00    +0.000 OA
ATOM     22  C16 UNL     1      58.688  56.281  65.319  0.00  0.00    +0.000 C 
ATOM     23  C17 UNL     1      59.347  55.843  66.398  0.00  0.00    +0.000 C 
ATOM     24  C18 UNL     1      59.521  56.640  67.632  0.00  0.00    +0.000 A 
ATOM     25  C19 UNL     1      59.537  58.058  67.640  0.00  0.00    +0.000 A 
ATOM     26  C20 UNL     1      59.680  58.761  68.850  0.00  0.00    +0.000 A 
ATOM     27  C21 UNL     1      59.800  58.032  70.030  0.00  0.00    +0.000 A 
ATOM     28  O4  UNL     1      59.911  58.540  71.306  0.00  0.00    +0.000 OA
ATOM     29  C22 UNL     1      59.962  57.482  72.269  0.00  0.00    +0.000 C 
ATOM     30  C23 UNL     1      61.227  57.625  73.130  0.00  0.00    +0.000 C 
ATOM     31  C24 UNL     1      59.805  56.669  70.032  0.00  0.00    +0.000 A 
ATOM     32  C25 UNL     1      59.671  55.944  68.847  0.00  0.00    +0.000 A 
ATOM     33  H7  UNL     1      55.767  52.411  72.457  0.00  0.00    +0.000 HD
ATOM     34  H14 UNL     1      57.237  53.464  68.030  0.00  0.00    +0.000 HD
ATOM     35  H23 UNL     1      60.011  54.006  64.307  0.00  0.00    +0.000 HD
ENDROOT
TORSDOF 0
ENDMDL
MODEL 2
REMARK VINA RESULT:    -7.579      4.484      8.164
REMARK INTER + INTRA:          -7.579
REMARK INTER:                  -7.579
REMARK INTRA:                   0.000
REMARK UNBOUND:                 0.000
REMARK  Name = CNP0159470_1.pdb
REMARK  0 active torsions:
REMARK  status: ('A' for Active; 'I' for Inactive)
REMARK                            x       y       z     vdW  Elec       q    Type
REMARK                         _______ _______ _______ _____ _____    ______ ____
ROOT
ATOM      1  O1  UNL     1      56.592  52.861  80.556  0.00  0.00    +0.000 OA
ATOM      2  C1  UNL     1      57.549  52.974  79.806  0.00  0.00    +0.000 C 
ATOM      3  C2  UNL     1      57.795  54.281  79.103  0.00  0.00    +0.000 C 
ATOM      4  C3  UNL     1      59.147  54.271  78.373  0.00  0.00    +0.000 C 
ATOM      5  C4  UNL     1      59.315  53.023  77.452  0.00  0.00    +0.000 C 
ATOM      6  C5  UNL     1      60.707  52.925  76.848  0.00  0.00    +0.000 C 
ATOM      7  C6  UNL     1      61.834  53.082  77.553  0.00  0.00    +0.000 C 
ATOM      8  C7  UNL     1      63.200  53.032  76.981  0.00  0.00    +0.000 C 
ATOM      9  O2  UNL     1      64.114  52.581  77.720  0.00  0.00    +0.000 OA
ATOM     10  N1  UNL     1      63.571  53.568  75.692  0.00  0.00    +0.000 N 
ATOM     11  C8  UNL     1      62.644  53.986  74.636  0.00  0.00    +0.000 C 
ATOM     12  C9  UNL     1      63.376  54.742  73.511  0.00  0.00    +0.000 C 
ATOM     13  C10 UNL     1      62.592  54.743  72.181  0.00  0.00    +0.000 C 
ATOM     14  N2  UNL     1      61.314  55.472  72.239  0.00  0.00    +0.000 NA
ATOM     15  C11 UNL     1      61.494  56.930  72.207  0.00  0.00    +0.000 C 
ATOM     16  C12 UNL     1      60.151  57.622  71.948  0.00  0.00    +0.000 C 
ATOM     17  C13 UNL     1      59.604  57.314  70.543  0.00  0.00    +0.000 C 
ATOM     18  C14 UNL     1      58.166  57.822  70.365  0.00  0.00    +0.000 C 
ATOM     19  N3  UNL     1      57.241  57.056  71.198  0.00  0.00    +0.000 N 
ATOM     20  C15 UNL     1      56.931  55.684  70.919  0.00  0.00    +0.000 C 
ATOM     21  O3  UNL     1      56.808  55.302  69.725  0.00  0.00    +0.000 OA
ATOM     22  C16 UNL     1      56.783  54.693  72.003  0.00  0.00    +0.000 C 
ATOM     23  C17 UNL     1      57.215  54.936  73.246  0.00  0.00    +0.000 C 
ATOM     24  C18 UNL     1      57.267  53.911  74.311  0.00  0.00    +0.000 A 
ATOM     25  C19 UNL     1      56.398  52.790  74.348  0.00  0.00    +0.000 A 
ATOM     26  C20 UNL     1      56.514  51.835  75.373  0.00  0.00    +0.000 A 
ATOM     27  C21 UNL     1      57.498  52.016  76.341  0.00  0.00    +0.000 A 
ATOM     28  O4  UNL     1      57.786  51.174  77.394  0.00  0.00    +0.000 OA
ATOM     29  C22 UNL     1      58.898  51.668  78.147  0.00  0.00    +0.000 C 
ATOM     30  C23 UNL     1      58.499  51.820  79.624  0.00  0.00    +0.000 C 
ATOM     31  C24 UNL     1      58.325  53.099  76.327  0.00  0.00    +0.000 A 
ATOM     32  C25 UNL     1      58.231  54.067  75.326  0.00  0.00    +0.000 A 
ATOM     33  H7  UNL     1      64.598  53.643  75.509  0.00  0.00    +0.000 HD
ATOM     34  H14 UNL     1      60.776  55.202  73.095  0.00  0.00    +0.000 HD
ATOM     35  H23 UNL     1      56.847  57.511  72.053  0.00  0.00    +0.000 HD
ENDROOT
TORSDOF 0
ENDMDL
MODEL 3
REMARK VINA RESULT:    -7.457      4.693      9.917
REMARK INTER + INTRA:          -7.457
REMARK INTER:                  -7.457
REMARK INTRA:                   0.000
REMARK UNBOUND:                 0.000
REMARK  Name = CNP0159470_1.pdb
REMARK  0 active torsions:
REMARK  status: ('A' for Active; 'I' for Inactive)
REMARK                            x       y       z     vdW  Elec       q    Type
REMARK                         _______ _______ _______ _____ _____    ______ ____
ROOT
ATOM      1  O1  UNL     1      53.101  52.494  74.902  0.00  0.00    +0.000 OA
ATOM      2  C1  UNL     1      54.150  52.951  74.473  0.00  0.00    +0.000 C 
ATOM      3  C2  UNL     1      55.373  52.078  74.412  0.00  0.00    +0.000 C 
ATOM      4  C3  UNL     1      56.517  52.780  73.665  0.00  0.00    +0.000 C 
ATOM      5  C4  UNL     1      56.797  54.211  74.217  0.00  0.00    +0.000 C 
ATOM      6  C5  UNL     1      57.820  54.970  73.386  0.00  0.00    +0.000 C 
ATOM      7  C6  UNL     1      57.787  55.035  72.050  0.00  0.00    +0.000 C 
ATOM      8  C7  UNL     1      58.793  55.733  71.215  0.00  0.00    +0.000 C 
ATOM      9  O2  UNL     1      58.386  56.252  70.142  0.00  0.00    +0.000 OA
ATOM     10  N1  UNL     1      60.212  55.757  71.486  0.00  0.00    +0.000 N 
ATOM     11  C8  UNL     1      60.854  55.352  72.740  0.00  0.00    +0.000 C 
ATOM     12  C9  UNL     1      62.384  55.262  72.586  0.00  0.00    +0.000 C 
ATOM     13  C10 UNL     1      63.128  55.357  73.935  0.00  0.00    +0.000 C 
ATOM     14  N2  UNL     1      62.861  54.234  74.848  0.00  0.00    +0.000 NA
ATOM     15  C11 UNL     1      63.582  53.012  74.465  0.00  0.00    +0.000 C 
ATOM     16  C12 UNL     1      63.526  51.987  75.604  0.00  0.00    +0.000 C 
ATOM     17  C13 UNL     1      64.298  52.465  76.848  0.00  0.00    +0.000 C 
ATOM     18  C14 UNL     1      64.060  51.547  78.055  0.00  0.00    +0.000 C 
ATOM     19  N3  UNL     1      62.681  51.658  78.525  0.00  0.00    +0.000 N 
ATOM     20  C15 UNL     1      62.193  52.846  79.164  0.00  0.00    +0.000 C 
ATOM     21  O3  UNL     1      62.941  53.481  79.955  0.00  0.00    +0.000 OA
ATOM     22  C16 UNL     1      60.839  53.366  78.891  0.00  0.00    +0.000 C 
ATOM     23  C17 UNL     1      60.122  52.952  77.841  0.00  0.00    +0.000 C 
ATOM     24  C18 UNL     1      58.851  53.579  77.416  0.00  0.00    +0.000 A 
ATOM     25  C19 UNL     1      57.984  54.252  78.315  0.00  0.00    +0.000 A 
ATOM     26  C20 UNL     1      56.802  54.852  77.847  0.00  0.00    +0.000 A 
ATOM     27  C21 UNL     1      56.508  54.769  76.488  0.00  0.00    +0.000 A 
ATOM     28  O4  UNL     1      55.423  55.322  75.842  0.00  0.00    +0.000 OA
ATOM     29  C22 UNL     1      55.489  55.068  74.435  0.00  0.00    +0.000 C 
ATOM     30  C23 UNL     1      54.200  54.370  73.972  0.00  0.00    +0.000 C 
ATOM     31  C24 UNL     1      57.324  54.107  75.619  0.00  0.00    +0.000 A 
ATOM     32  C25 UNL     1      58.501  53.498  76.055  0.00  0.00    +0.000 A 
ATOM     33  H7  UNL     1      60.817  56.110  70.710  0.00  0.00    +0.000 HD
ATOM     34  H14 UNL     1      61.835  54.037  74.898  0.00  0.00    +0.000 HD
ATOM     35  H23 UNL     1      62.023  50.870  78.330  0.00  0.00    +0.000 HD
ENDROOT
TORSDOF 0
ENDMDL
MODEL 4
REMARK VINA RESULT:    -7.445      4.514      8.193
REMARK INTER + INTRA:          -7.445
REMARK INTER:                  -7.445
REMARK INTRA:                   0.000
REMARK UNBOUND:                 0.000
REMARK  Name = CNP0159470_1.pdb
REMARK  0 active torsions:
REMARK  status: ('A' for Active; 'I' for Inactive)
REMARK                            x       y       z     vdW  Elec       q    Type
REMARK                         _______ _______ _______ _____ _____    ______ ____
ROOT
ATOM      1  O1  UNL     1      60.197  58.901  69.701  0.00  0.00    +0.000 OA
ATOM      2  C1  UNL     1      59.667  58.154  70.509  0.00  0.00    +0.000 C 
ATOM      3  C2  UNL     1      60.129  58.157  71.941  0.00  0.00    +0.000 C 
ATOM      4  C3  UNL     1      59.207  57.300  72.821  0.00  0.00    +0.000 C 
ATOM      5  C4  UNL     1      58.988  55.871  72.237  0.00  0.00    +0.000 C 
ATOM      6  C5  UNL     1      57.957  55.071  73.018  0.00  0.00    +0.000 C 
ATOM      7  C6  UNL     1      56.768  55.559  73.391  0.00  0.00    +0.000 C 
ATOM      8  C7  UNL     1      55.763  54.814  74.187  0.00  0.00    +0.000 C 
ATOM      9  O2  UNL     1      54.551  55.068  73.960  0.00  0.00    +0.000 OA
ATOM     10  N1  UNL     1      56.078  53.915  75.273  0.00  0.00    +0.000 N 
ATOM     11  C8  UNL     1      57.405  53.378  75.586  0.00  0.00    +0.000 C 
ATOM     12  C9  UNL     1      57.416  52.667  76.953  0.00  0.00    +0.000 C 
ATOM     13  C10 UNL     1      58.582  51.665  77.098  0.00  0.00    +0.000 C 
ATOM     14  N2  UNL     1      59.915  52.291  77.084  0.00  0.00    +0.000 NA
ATOM     15  C11 UNL     1      60.242  52.951  78.355  0.00  0.00    +0.000 C 
ATOM     16  C12 UNL     1      61.734  53.300  78.401  0.00  0.00    +0.000 C 
ATOM     17  C13 UNL     1      62.620  52.041  78.431  0.00  0.00    +0.000 C 
ATOM     18  C14 UNL     1      64.106  52.383  78.255  0.00  0.00    +0.000 C 
ATOM     19  N3  UNL     1      64.366  52.873  76.903  0.00  0.00    +0.000 N 
ATOM     20  C15 UNL     1      64.293  52.011  75.759  0.00  0.00    +0.000 C 
ATOM     21  O3  UNL     1      64.708  50.825  75.845  0.00  0.00    +0.000 OA
ATOM     22  C16 UNL     1      63.710  52.472  74.485  0.00  0.00    +0.000 C 
ATOM     23  C17 UNL     1      62.963  53.580  74.409  0.00  0.00    +0.000 C 
ATOM     24  C18 UNL     1      62.201  53.975  73.204  0.00  0.00    +0.000 A 
ATOM     25  C19 UNL     1      62.584  53.601  71.891  0.00  0.00    +0.000 A 
ATOM     26  C20 UNL     1      61.803  53.985  70.786  0.00  0.00    +0.000 A 
ATOM     27  C21 UNL     1      60.651  54.734  71.015  0.00  0.00    +0.000 A 
ATOM     28  O4  UNL     1      59.747  55.168  70.071  0.00  0.00    +0.000 OA
ATOM     29  C22 UNL     1      58.663  55.866  70.692  0.00  0.00    +0.000 C 
ATOM     30  C23 UNL     1      58.528  57.269  70.077  0.00  0.00    +0.000 C 
ATOM     31  C24 UNL     1      60.284  55.116  72.272  0.00  0.00    +0.000 A 
ATOM     32  C25 UNL     1      61.042  54.755  73.387  0.00  0.00    +0.000 A 
ATOM     33  H7  UNL     1      55.271  53.623  75.870  0.00  0.00    +0.000 HD
ATOM     34  H14 UNL     1      59.990  52.979  76.299  0.00  0.00    +0.000 HD
ATOM     35  H23 UNL     1      64.549  53.894  76.770  0.00  0.00    +0.000 HD
ENDROOT
TORSDOF 0
ENDMDL
MODEL 5
REMARK VINA RESULT:    -7.439      4.043      6.127
REMARK INTER + INTRA:          -7.439
REMARK INTER:                  -7.439
REMARK INTRA:                   0.000
REMARK UNBOUND:                 0.000
REMARK  Name = CNP0159470_1.pdb
REMARK  0 active torsions:
REMARK  status: ('A' for Active; 'I' for Inactive)
REMARK                            x       y       z     vdW  Elec       q    Type
REMARK                         _______ _______ _______ _____ _____    ______ ____
ROOT
ATOM      1  O1  UNL     1      65.530  50.649  73.876  0.00  0.00    +0.000 OA
ATOM      2  C1  UNL     1      64.411  51.077  74.112  0.00  0.00    +0.000 C 
ATOM      3  C2  UNL     1      63.440  51.289  72.982  0.00  0.00    +0.000 C 
ATOM      4  C3  UNL     1      62.041  51.637  73.512  0.00  0.00    +0.000 C 
ATOM      5  C4  UNL     1      62.071  52.810  74.540  0.00  0.00    +0.000 C 
ATOM      6  C5  UNL     1      60.716  53.058  75.184  0.00  0.00    +0.000 C 
ATOM      7  C6  UNL     1      59.942  52.085  75.680  0.00  0.00    +0.000 C 
ATOM      8  C7  UNL     1      58.601  52.296  76.276  0.00  0.00    +0.000 C 
ATOM      9  O2  UNL     1      58.259  51.519  77.205  0.00  0.00    +0.000 OA
ATOM     10  N1  UNL     1      57.625  53.242  75.788  0.00  0.00    +0.000 N 
ATOM     11  C8  UNL     1      57.880  54.325  74.832  0.00  0.00    +0.000 C 
ATOM     12  C9  UNL     1      56.568  54.967  74.346  0.00  0.00    +0.000 C 
ATOM     13  C10 UNL     1      56.771  56.389  73.779  0.00  0.00    +0.000 C 
ATOM     14  N2  UNL     1      57.589  56.435  72.557  0.00  0.00    +0.000 NA
ATOM     15  C11 UNL     1      56.848  55.999  71.365  0.00  0.00    +0.000 C 
ATOM     16  C12 UNL     1      57.627  56.365  70.096  0.00  0.00    +0.000 C 
ATOM     17  C13 UNL     1      57.725  57.889  69.899  0.00  0.00    +0.000 C 
ATOM     18  C14 UNL     1      58.684  58.257  68.758  0.00  0.00    +0.000 C 
ATOM     19  N3  UNL     1      60.063  57.934  69.119  0.00  0.00    +0.000 N 
ATOM     20  C15 UNL     1      60.772  58.666  70.128  0.00  0.00    +0.000 C 
ATOM     21  O3  UNL     1      60.611  59.911  70.224  0.00  0.00    +0.000 OA
ATOM     22  C16 UNL     1      61.666  57.986  71.085  0.00  0.00    +0.000 C 
ATOM     23  C17 UNL     1      61.636  56.660  71.262  0.00  0.00    +0.000 C 
ATOM     24  C18 UNL     1      62.368  55.959  72.339  0.00  0.00    +0.000 A 
ATOM     25  C19 UNL     1      63.562  56.462  72.916  0.00  0.00    +0.000 A 
ATOM     26  C20 UNL     1      64.198  55.762  73.957  0.00  0.00    +0.000 A 
ATOM     27  C21 UNL     1      63.627  54.573  74.404  0.00  0.00    +0.000 A 
ATOM     28  O4  UNL     1      64.082  53.773  75.429  0.00  0.00    +0.000 OA
ATOM     29  C22 UNL     1      63.203  52.662  75.631  0.00  0.00    +0.000 C 
ATOM     30  C23 UNL     1      63.996  51.349  75.534  0.00  0.00    +0.000 C 
ATOM     31  C24 UNL     1      62.491  54.070  73.843  0.00  0.00    +0.000 A 
ATOM     32  C25 UNL     1      61.840  54.739  72.805  0.00  0.00    +0.000 A 
ATOM     33  H7  UNL     1      56.659  53.139  76.174  0.00  0.00    +0.000 HD
ATOM     34  H14 UNL     1      58.451  55.854  72.669  0.00  0.00    +0.000 HD
ATOM     35  H23 UNL     1      60.515  57.107  68.667  0.00  0.00    +0.000 HD
ENDROOT
TORSDOF 0
ENDMDL
MODEL 6
REMARK VINA RESULT:    -7.286      3.334      8.018
REMARK INTER + INTRA:          -7.286
REMARK INTER:                  -7.286
REMARK INTRA:                   0.000
REMARK UNBOUND:                 0.000
REMARK  Name = CNP0159470_1.pdb
REMARK  0 active torsions:
REMARK  status: ('A' for Active; 'I' for Inactive)
REMARK                            x       y       z     vdW  Elec       q    Type
REMARK                         _______ _______ _______ _____ _____    ______ ____
ROOT
ATOM      1  O1  UNL     1      58.249  53.716  64.336  0.00  0.00    +0.000 OA
ATOM      2  C1  UNL     1      58.580  54.497  65.216  0.00  0.00    +0.000 C 
ATOM      3  C2  UNL     1      59.936  54.369  65.854  0.00  0.00    +0.000 C 
ATOM      4  C3  UNL     1      60.224  55.557  66.784  0.00  0.00    +0.000 C 
ATOM      5  C4  UNL     1      59.073  55.803  67.807  0.00  0.00    +0.000 C 
ATOM      6  C5  UNL     1      59.278  57.067  68.626  0.00  0.00    +0.000 C 
ATOM      7  C6  UNL     1      59.627  58.245  68.096  0.00  0.00    +0.000 C 
ATOM      8  C7  UNL     1      59.872  59.482  68.876  0.00  0.00    +0.000 C 
ATOM      9  O2  UNL     1      59.584  60.575  68.322  0.00  0.00    +0.000 OA
ATOM     10  N1  UNL     1      60.522  59.524  70.166  0.00  0.00    +0.000 N 
ATOM     11  C8  UNL     1      60.789  58.371  71.031  0.00  0.00    +0.000 C 
ATOM     12  C9  UNL     1      61.720  58.748  72.199  0.00  0.00    +0.000 C 
ATOM     13  C10 UNL     1      61.619  57.768  73.387  0.00  0.00    +0.000 C 
ATOM     14  N2  UNL     1      62.076  56.403  73.078  0.00  0.00    +0.000 NA
ATOM     15  C11 UNL     1      63.541  56.295  73.034  0.00  0.00    +0.000 C 
ATOM     16  C12 UNL     1      63.962  54.821  73.029  0.00  0.00    +0.000 C 
ATOM     17  C13 UNL     1      63.606  54.115  74.351  0.00  0.00    +0.000 C 
ATOM     18  C14 UNL     1      63.826  52.598  74.266  0.00  0.00    +0.000 C 
ATOM     19  N3  UNL     1      62.859  51.987  73.356  0.00  0.00    +0.000 N 
ATOM     20  C15 UNL     1      61.464  51.901  73.681  0.00  0.00    +0.000 C 
ATOM     21  O3  UNL     1      61.114  51.655  74.866  0.00  0.00    +0.000 OA
ATOM     22  C16 UNL     1      60.422  52.127  72.661  0.00  0.00    +0.000 C 
ATOM     23  C17 UNL     1      60.696  52.706  71.486  0.00  0.00    +0.000 C 
ATOM     24  C18 UNL     1      59.660  53.129  70.518  0.00  0.00    +0.000 A 
ATOM     25  C19 UNL     1      58.388  52.507  70.427  0.00  0.00    +0.000 A 
ATOM     26  C20 UNL     1      57.435  52.971  69.504  0.00  0.00    +0.000 A 
ATOM     27  C21 UNL     1      57.769  54.050  68.690  0.00  0.00    +0.000 A 
ATOM     28  O4  UNL     1      56.960  54.664  67.759  0.00  0.00    +0.000 OA
ATOM     29  C22 UNL     1      57.635  55.773  67.155  0.00  0.00    +0.000 C 
ATOM     30  C23 UNL     1      57.646  55.604  65.627  0.00  0.00    +0.000 C 
ATOM     31  C24 UNL     1      58.995  54.643  68.755  0.00  0.00    +0.000 A 
ATOM     32  C25 UNL     1      59.964  54.201  69.658  0.00  0.00    +0.000 A 
ATOM     33  H7  UNL     1      60.808  60.472  70.501  0.00  0.00    +0.000 HD
ATOM     34  H14 UNL     1      61.671  56.075  72.171  0.00  0.00    +0.000 HD
ATOM     35  H23 UNL     1      63.191  51.663  72.419  0.00  0.00    +0.000 HD
ENDROOT
TORSDOF 0
ENDMDL
MODEL 7
REMARK VINA RESULT:    -7.104      4.131      7.964
REMARK INTER + INTRA:          -7.104
REMARK INTER:                  -7.104
REMARK INTRA:                   0.000
REMARK UNBOUND:                 0.000
REMARK  Name = CNP0159470_1.pdb
REMARK  0 active torsions:
REMARK  status: ('A' for Active; 'I' for Inactive)
REMARK                            x       y       z     vdW  Elec       q    Type
REMARK                         _______ _______ _______ _____ _____    ______ ____
ROOT
ATOM      1  O1  UNL     1      59.046  57.493  68.187  0.00  0.00    +0.000 OA
ATOM      2  C1  UNL     1      59.657  57.026  69.136  0.00  0.00    +0.000 C 
ATOM      3  C2  UNL     1      59.524  55.563  69.461  0.00  0.00    +0.000 C 
ATOM      4  C3  UNL     1      60.518  55.146  70.555  0.00  0.00    +0.000 C 
ATOM      5  C4  UNL     1      60.447  56.075  71.807  0.00  0.00    +0.000 C 
ATOM      6  C5  UNL     1      61.531  55.765  72.827  0.00  0.00    +0.000 C 
ATOM      7  C6  UNL     1      62.819  55.587  72.509  0.00  0.00    +0.000 C 
ATOM      8  C7  UNL     1      63.887  55.245  73.478  0.00  0.00    +0.000 C 
ATOM      9  O2  UNL     1      65.040  55.691  73.240  0.00  0.00    +0.000 OA
ATOM     10  N1  UNL     1      63.723  54.347  74.598  0.00  0.00    +0.000 N 
ATOM     11  C8  UNL     1      62.447  53.855  75.126  0.00  0.00    +0.000 C 
ATOM     12  C9  UNL     1      62.659  52.724  76.149  0.00  0.00    +0.000 C 
ATOM     13  C10 UNL     1      61.452  52.534  77.092  0.00  0.00    +0.000 C 
ATOM     14  N2  UNL     1      60.225  52.087  76.413  0.00  0.00    +0.000 NA
ATOM     15  C11 UNL     1      60.260  50.659  76.069  0.00  0.00    +0.000 C 
ATOM     16  C12 UNL     1      58.861  50.180  75.664  0.00  0.00    +0.000 C 
ATOM     17  C13 UNL     1      57.872  50.224  76.843  0.00  0.00    +0.000 C 
ATOM     18  C14 UNL     1      56.429  49.956  76.390  0.00  0.00    +0.000 C 
ATOM     19  N3  UNL     1      55.933  51.060  75.570  0.00  0.00    +0.000 N 
ATOM     20  C15 UNL     1      55.659  52.353  76.128  0.00  0.00    +0.000 C 
ATOM     21  O3  UNL     1      55.147  52.441  77.275  0.00  0.00    +0.000 OA
ATOM     22  C16 UNL     1      55.994  53.591  75.399  0.00  0.00    +0.000 C 
ATOM     23  C17 UNL     1      56.822  53.591  74.348  0.00  0.00    +0.000 C 
ATOM     24  C18 UNL     1      57.339  54.821  73.710  0.00  0.00    +0.000 A 
ATOM     25  C19 UNL     1      56.638  56.054  73.729  0.00  0.00    +0.000 A 
ATOM     26  C20 UNL     1      57.194  57.197  73.127  0.00  0.00    +0.000 A 
ATOM     27  C21 UNL     1      58.442  57.087  72.519  0.00  0.00    +0.000 A 
ATOM     28  O4  UNL     1      59.158  58.097  71.915  0.00  0.00    +0.000 OA
ATOM     29  C22 UNL     1      60.422  57.612  71.449  0.00  0.00    +0.000 C 
ATOM     30  C23 UNL     1      60.570  57.907  69.947  0.00  0.00    +0.000 C 
ATOM     31  C24 UNL     1      59.116  55.902  72.478  0.00  0.00    +0.000 A 
ATOM     32  C25 UNL     1      58.587  54.750  73.061  0.00  0.00    +0.000 A 
ATOM     33  H7  UNL     1      64.605  54.044  75.071  0.00  0.00    +0.000 HD
ATOM     34  H14 UNL     1      60.055  52.654  75.550  0.00  0.00    +0.000 HD
ATOM     35  H23 UNL     1      55.837  50.911  74.540  0.00  0.00    +0.000 HD
ENDROOT
TORSDOF 0
ENDMDL
MODEL 8
REMARK VINA RESULT:    -6.994      4.373      8.430
REMARK INTER + INTRA:          -6.994
REMARK INTER:                  -6.994
REMARK INTRA:                   0.000
REMARK UNBOUND:                 0.000
REMARK  Name = CNP0159470_1.pdb
REMARK  0 active torsions:
REMARK  status: ('A' for Active; 'I' for Inactive)
REMARK                            x       y       z     vdW  Elec       q    Type
REMARK                         _______ _______ _______ _____ _____    ______ ____
ROOT
ATOM      1  O1  UNL     1      60.791  59.013  70.884  0.00  0.00    +0.000 OA
ATOM      2  C1  UNL     1      60.290  57.935  71.164  0.00  0.00    +0.000 C 
ATOM      3  C2  UNL     1      59.917  57.635  72.590  0.00  0.00    +0.000 C 
ATOM      4  C3  UNL     1      59.128  56.321  72.692  0.00  0.00    +0.000 C 
ATOM      5  C4  UNL     1      59.847  55.140  71.971  0.00  0.00    +0.000 C 
ATOM      6  C5  UNL     1      59.002  53.876  71.933  0.00  0.00    +0.000 C 
ATOM      7  C6  UNL     1      57.711  53.859  71.582  0.00  0.00    +0.000 C 
ATOM      8  C7  UNL     1      56.855  52.648  71.576  0.00  0.00    +0.000 C 
ATOM      9  O2  UNL     1      55.946  52.594  70.708  0.00  0.00    +0.000 OA
ATOM     10  N1  UNL     1      56.917  51.593  72.561  0.00  0.00    +0.000 N 
ATOM     11  C8  UNL     1      57.988  51.396  73.543  0.00  0.00    +0.000 C 
ATOM     12  C9  UNL     1      57.601  50.338  74.593  0.00  0.00    +0.000 C 
ATOM     13  C10 UNL     1      58.826  49.725  75.306  0.00  0.00    +0.000 C 
ATOM     14  N2  UNL     1      59.585  50.685  76.125  0.00  0.00    +0.000 NA
ATOM     15  C11 UNL     1      58.919  50.991  77.398  0.00  0.00    +0.000 C 
ATOM     16  C12 UNL     1      59.883  51.728  78.335  0.00  0.00    +0.000 C 
ATOM     17  C13 UNL     1      61.060  50.835  78.770  0.00  0.00    +0.000 C 
ATOM     18  C14 UNL     1      62.134  51.632  79.524  0.00  0.00    +0.000 C 
ATOM     19  N3  UNL     1      62.810  52.564  78.625  0.00  0.00    +0.000 N 
ATOM     20  C15 UNL     1      63.689  52.110  77.585  0.00  0.00    +0.000 C 
ATOM     21  O3  UNL     1      64.450  51.129  77.796  0.00  0.00    +0.000 OA
ATOM     22  C16 UNL     1      63.698  52.748  76.254  0.00  0.00    +0.000 C 
ATOM     23  C17 UNL     1      62.712  53.557  75.851  0.00  0.00    +0.000 C 
ATOM     24  C18 UNL     1      62.579  54.061  74.466  0.00  0.00    +0.000 A 
ATOM     25  C19 UNL     1      63.686  54.234  73.597  0.00  0.00    +0.000 A 
ATOM     26  C20 UNL     1      63.492  54.692  72.282  0.00  0.00    +0.000 A 
ATOM     27  C21 UNL     1      62.194  54.966  71.858  0.00  0.00    +0.000 A 
ATOM     28  O4  UNL     1      61.806  55.385  70.605  0.00  0.00    +0.000 OA
ATOM     29  C22 UNL     1      60.382  55.512  70.533  0.00  0.00    +0.000 C 
ATOM     30  C23 UNL     1      60.010  56.932  70.076  0.00  0.00    +0.000 C 
ATOM     31  C24 UNL     1      61.125  54.822  72.692  0.00  0.00    +0.000 A 
ATOM     32  C25 UNL     1      61.286  54.375  74.004  0.00  0.00    +0.000 A 
ATOM     33  H7  UNL     1      56.125  50.910  72.548  0.00  0.00    +0.000 HD
ATOM     34  H14 UNL     1      59.753  51.570  75.593  0.00  0.00    +0.000 HD
ATOM     35  H23 UNL     1      62.595  53.584  78.710  0.00  0.00    +0.000 HD
ENDROOT
TORSDOF 0
ENDMDL
MODEL 9
REMARK VINA RESULT:    -6.982      3.290      7.407
REMARK INTER + INTRA:          -6.982
REMARK INTER:                  -6.982
REMARK INTRA:                   0.000
REMARK UNBOUND:                 0.000
REMARK  Name = CNP0159470_1.pdb
REMARK  0 active torsions:
REMARK  status: ('A' for Active; 'I' for Inactive)
REMARK                            x       y       z     vdW  Elec       q    Type
REMARK                         _______ _______ _______ _____ _____    ______ ____
ROOT
ATOM      1  O1  UNL     1      57.695  56.497  65.646  0.00  0.00    +0.000 OA
ATOM      2  C1  UNL     1      58.356  55.889  66.474  0.00  0.00    +0.000 C 
ATOM      3  C2  UNL     1      57.724  54.773  67.260  0.00  0.00    +0.000 C 
ATOM      4  C3  UNL     1      58.771  54.020  68.093  0.00  0.00    +0.000 C 
ATOM      5  C4  UNL     1      59.643  54.980  68.959  0.00  0.00    +0.000 C 
ATOM      6  C5  UNL     1      60.781  54.259  69.666  0.00  0.00    +0.000 C 
ATOM      7  C6  UNL     1      61.594  53.385  69.061  0.00  0.00    +0.000 C 
ATOM      8  C7  UNL     1      62.683  52.640  69.737  0.00  0.00    +0.000 C 
ATOM      9  O2  UNL     1      63.703  52.371  69.050  0.00  0.00    +0.000 OA
ATOM     10  N1  UNL     1      62.605  52.106  71.076  0.00  0.00    +0.000 N 
ATOM     11  C8  UNL     1      61.584  52.437  72.075  0.00  0.00    +0.000 C 
ATOM     12  C9  UNL     1      61.660  51.495  73.291  0.00  0.00    +0.000 C 
ATOM     13  C10 UNL     1      61.000  52.090  74.553  0.00  0.00    +0.000 C 
ATOM     14  N2  UNL     1      59.547  52.293  74.431  0.00  0.00    +0.000 NA
ATOM     15  C11 UNL     1      58.791  51.039  74.552  0.00  0.00    +0.000 C 
ATOM     16  C12 UNL     1      57.299  51.338  74.737  0.00  0.00    +0.000 C 
ATOM     17  C13 UNL     1      57.014  52.040  76.078  0.00  0.00    +0.000 C 
ATOM     18  C14 UNL     1      55.563  52.534  76.167  0.00  0.00    +0.000 C 
ATOM     19  N3  UNL     1      55.332  53.628  75.226  0.00  0.00    +0.000 N 
ATOM     20  C15 UNL     1      55.924  54.922  75.410  0.00  0.00    +0.000 C 
ATOM     21  O3  UNL     1      56.024  55.402  76.570  0.00  0.00    +0.000 OA
ATOM     22  C16 UNL     1      56.451  55.695  74.269  0.00  0.00    +0.000 C 
ATOM     23  C17 UNL     1      56.680  55.131  73.078  0.00  0.00    +0.000 C 
ATOM     24  C18 UNL     1      57.385  55.811  71.970  0.00  0.00    +0.000 A 
ATOM     25  C19 UNL     1      57.392  57.220  71.808  0.00  0.00    +0.000 A 
ATOM     26  C20 UNL     1      58.103  57.810  70.748  0.00  0.00    +0.000 A 
ATOM     27  C21 UNL     1      58.797  56.981  69.871  0.00  0.00    +0.000 A 
ATOM     28  O4  UNL     1      59.575  57.374  68.803  0.00  0.00    +0.000 OA
ATOM     29  C22 UNL     1      60.171  56.239  68.166  0.00  0.00    +0.000 C 
ATOM     30  C23 UNL     1      59.809  56.233  66.672  0.00  0.00    +0.000 C 
ATOM     31  C24 UNL     1      58.781  55.624  70.005  0.00  0.00    +0.000 A 
ATOM     32  C25 UNL     1      58.080  55.009  71.043  0.00  0.00    +0.000 A 
ATOM     33  H7  UNL     1      63.362  51.435  71.343  0.00  0.00    +0.000 HD
ATOM     34  H14 UNL     1      59.316  52.758  73.523  0.00  0.00    +0.000 HD
ATOM     35  H23 UNL     1      54.769  53.435  74.367  0.00  0.00    +0.000 HD
ENDROOT
TORSDOF 0
ENDMDL
MODEL 10
REMARK VINA RESULT:    -6.888      2.931      6.868
REMARK INTER + INTRA:          -6.888
REMARK INTER:                  -6.888
REMARK INTRA:                   0.000
REMARK UNBOUND:                 0.000
REMARK  Name = CNP0159470_1.pdb
REMARK  0 active torsions:
REMARK  status: ('A' for Active; 'I' for Inactive)
REMARK                            x       y       z     vdW  Elec       q    Type
REMARK                         _______ _______ _______ _____ _____    ______ ____
ROOT
ATOM      1  O1  UNL     1      59.514  58.564  66.907  0.00  0.00    +0.000 OA
ATOM      2  C1  UNL     1      59.391  57.425  67.332  0.00  0.00    +0.000 C 
ATOM      3  C2  UNL     1      58.029  56.916  67.715  0.00  0.00    +0.000 C 
ATOM      4  C3  UNL     1      58.069  55.414  68.032  0.00  0.00    +0.000 C 
ATOM      5  C4  UNL     1      59.183  55.053  69.062  0.00  0.00    +0.000 C 
ATOM      6  C5  UNL     1      59.331  53.554  69.263  0.00  0.00    +0.000 C 
ATOM      7  C6  UNL     1      59.389  52.673  68.257  0.00  0.00    +0.000 C 
ATOM      8  C7  UNL     1      59.493  51.204  68.428  0.00  0.00    +0.000 C 
ATOM      9  O2  UNL     1      60.132  50.569  67.548  0.00  0.00    +0.000 OA
ATOM     10  N1  UNL     1      58.818  50.447  69.457  0.00  0.00    +0.000 N 
ATOM     11  C8  UNL     1      58.164  51.004  70.645  0.00  0.00    +0.000 C 
ATOM     12  C9  UNL     1      57.332  49.938  71.382  0.00  0.00    +0.000 C 
ATOM     13  C10 UNL     1      57.064  50.302  72.858  0.00  0.00    +0.000 C 
ATOM     14  N2  UNL     1      56.228  51.500  73.037  0.00  0.00    +0.000 NA
ATOM     15  C11 UNL     1      54.806  51.239  72.779  0.00  0.00    +0.000 C 
ATOM     16  C12 UNL     1      53.954  52.411  73.282  0.00  0.00    +0.000 C 
ATOM     17  C13 UNL     1      54.004  52.543  74.815  0.00  0.00    +0.000 C 
ATOM     18  C14 UNL     1      53.335  53.838  75.299  0.00  0.00    +0.000 C 
ATOM     19  N3  UNL     1      54.116  55.005  74.894  0.00  0.00    +0.000 N 
ATOM     20  C15 UNL     1      55.398  55.295  75.470  0.00  0.00    +0.000 C 
ATOM     21  O3  UNL     1      55.591  55.086  76.697  0.00  0.00    +0.000 OA
ATOM     22  C16 UNL     1      56.513  55.803  74.648  0.00  0.00    +0.000 C 
ATOM     23  C17 UNL     1      56.493  55.738  73.312  0.00  0.00    +0.000 C 
ATOM     24  C18 UNL     1      57.659  56.053  72.457  0.00  0.00    +0.000 A 
ATOM     25  C19 UNL     1      58.682  56.954  72.848  0.00  0.00    +0.000 A 
ATOM     26  C20 UNL     1      59.781  57.192  72.003  0.00  0.00    +0.000 A 
ATOM     27  C21 UNL     1      59.838  56.523  70.783  0.00  0.00    +0.000 A 
ATOM     28  O4  UNL     1      60.844  56.598  69.846  0.00  0.00    +0.000 OA
ATOM     29  C22 UNL     1      60.575  55.727  68.743  0.00  0.00    +0.000 C 
ATOM     30  C23 UNL     1      60.596  56.528  67.431  0.00  0.00    +0.000 C 
ATOM     31  C24 UNL     1      58.850  55.669  70.389  0.00  0.00    +0.000 A 
ATOM     32  C25 UNL     1      57.746  55.417  71.204  0.00  0.00    +0.000 A 
ATOM     33  H7  UNL     1      58.819  49.409  69.333  0.00  0.00    +0.000 HD
ATOM     34  H14 UNL     1      56.562  52.277  72.422  0.00  0.00    +0.000 HD
ATOM     35  H23 UNL     1      53.751  55.604  74.119  0.00  0.00    +0.000 HD
ENDROOT
TORSDOF 0
ENDMDL
