MODEL 1
REMARK VINA RESULT:    -8.039      0.000      0.000
REMARK INTER + INTRA:         -10.642
REMARK INTER:                  -9.449
REMARK INTRA:                  -1.194
REMARK UNBOUND:                -1.194
REMARK  Name = CNP0156845_1.pdb
REMARK  4 active torsions:
REMARK  status: ('A' for Active; 'I' for Inactive)
REMARK    1  A    between atoms: C1_1  and  C2_2
REMARK    2  A    between atoms: C10_14  and  C11_15
REMARK    3  A    between atoms: C11_15  and  C12_16
REMARK    4  A    between atoms: N4_28  and  C22_29
REMARK                            x       y       z     vdW  Elec       q    Type
REMARK                         _______ _______ _______ _____ _____    ______ ____
ROOT
ATOM      1  C1  UNL     1      25.022  31.123  42.247  0.00  0.00    +0.000 C 
ATOM      2  C2  UNL     1      24.727  32.431  41.572  0.00  0.00    +0.000 A 
ATOM      3  C3  UNL     1      25.657  33.489  41.600  0.00  0.00    +0.000 A 
ATOM      4  C4  UNL     1      25.372  34.709  40.958  0.00  0.00    +0.000 A 
ATOM      5 CL1  UNL     1      26.548  36.010  40.984  0.00  0.00    +0.000 Cl
ATOM      6  C5  UNL     1      24.154  34.887  40.284  0.00  0.00    +0.000 A 
ATOM      7  C6  UNL     1      23.238  33.829  40.251  0.00  0.00    +0.000 A 
ATOM      8  C7  UNL     1      23.523  32.633  40.884  0.00  0.00    +0.000 A 
ATOM      9  N1  UNL     1      22.476  31.691  40.726  0.00  0.00    +0.000 N 
ATOM     10  C8  UNL     1      21.491  32.354  39.946  0.00  0.00    +0.000 C 
ATOM     11  O1  UNL     1      20.404  31.806  39.619  0.00  0.00    +0.000 OA
ATOM     12  C9  UNL     1      21.885  33.766  39.567  0.00  0.00    +0.000 C 
ATOM     13  N2  UNL     1      20.977  34.760  40.151  0.00  0.00    +0.000 NA
ATOM     14  C10 UNL     1      21.006  35.915  39.241  0.00  0.00    +0.000 C 
ATOM     15  C20 UNL     1      21.336  35.389  37.834  0.00  0.00    +0.000 C 
ATOM     16  C21 UNL     1      22.464  36.130  37.182  0.00  0.00    +0.000 C 
ATOM     17  O2  UNL     1      22.406  37.347  36.859  0.00  0.00    +0.000 OA
ATOM     18  N4  UNL     1      23.594  35.311  36.917  0.00  0.00    +0.000 N 
ATOM     19  C28 UNL     1      23.248  34.020  37.394  0.00  0.00    +0.000 C 
ATOM     20  O3  UNL     1      24.019  33.026  37.323  0.00  0.00    +0.000 OA
ATOM     21  C29 UNL     1      21.892  33.975  38.035  0.00  0.00    +0.000 C 
ATOM     22  H6  UNL     1      22.431  30.716  41.099  0.00  0.00    +0.000 HD
ATOM     23  H7  UNL     1      20.008  34.362  40.147  0.00  0.00    +0.000 HD
ENDROOT
BRANCH  18  24
ATOM     24  C22 UNL     1      24.921  35.755  36.590  0.00  0.00    +0.000 A 
ATOM     25  C23 UNL     1      25.970  35.617  37.516  0.00  0.00    +0.000 A 
ATOM     26  C24 UNL     1      27.264  36.027  37.183  0.00  0.00    +0.000 A 
ATOM     27  C25 UNL     1      27.522  36.577  35.924  0.00  0.00    +0.000 A 
ATOM     28  C26 UNL     1      26.486  36.716  34.997  0.00  0.00    +0.000 A 
ATOM     29  C27 UNL     1      25.190  36.305  35.326  0.00  0.00    +0.000 A 
ENDBRANCH  18  24
BRANCH  14  30
ATOM     30  C11 UNL     1      19.682  36.705  39.261  0.00  0.00    +0.000 C 
BRANCH  30  31
ATOM     31  C12 UNL     1      19.873  38.095  38.727  0.00  0.00    +0.000 A 
ATOM     32  C13 UNL     1      20.316  39.199  39.451  0.00  0.00    +0.000 A 
ATOM     33  N3  UNL     1      20.294  40.310  38.678  0.00  0.00    +0.000 N 
ATOM     34  C14 UNL     1      19.831  39.918  37.478  0.00  0.00    +0.000 A 
ATOM     35  C15 UNL     1      19.616  40.716  36.355  0.00  0.00    +0.000 A 
ATOM     36  C16 UNL     1      19.108  40.100  35.197  0.00  0.00    +0.000 A 
ATOM     37  C17 UNL     1      18.828  38.715  35.188  0.00  0.00    +0.000 A 
ATOM     38  C18 UNL     1      19.054  37.934  36.335  0.00  0.00    +0.000 A 
ATOM     39  C19 UNL     1      19.560  38.573  37.469  0.00  0.00    +0.000 A 
ATOM     40  H12 UNL     1      20.566  41.276  38.965  0.00  0.00    +0.000 HD
ENDBRANCH  30  31
ENDBRANCH  14  30
TORSDOF 3
ENDMDL
MODEL 2
REMARK VINA RESULT:    -7.837      4.882      8.850
REMARK INTER + INTRA:         -10.405
REMARK INTER:                  -8.982
REMARK INTRA:                  -1.423
REMARK UNBOUND:                -1.194
REMARK  Name = CNP0156845_1.pdb
REMARK  4 active torsions:
REMARK  status: ('A' for Active; 'I' for Inactive)
REMARK    1  A    between atoms: C1_1  and  C2_2
REMARK    2  A    between atoms: C10_14  and  C11_15
REMARK    3  A    between atoms: C11_15  and  C12_16
REMARK    4  A    between atoms: N4_28  and  C22_29
REMARK                            x       y       z     vdW  Elec       q    Type
REMARK                         _______ _______ _______ _____ _____    ______ ____
ROOT
ATOM      1  C1  UNL     1      14.442  40.211  31.817  0.00  0.00    +0.000 C 
ATOM      2  C2  UNL     1      15.698  39.676  32.441  0.00  0.00    +0.000 A 
ATOM      3  C3  UNL     1      16.046  38.316  32.324  0.00  0.00    +0.000 A 
ATOM      4  C4  UNL     1      17.230  37.828  32.908  0.00  0.00    +0.000 A 
ATOM      5 CL1  UNL     1      17.660  36.136  32.736  0.00  0.00    +0.000 Cl
ATOM      6  C5  UNL     1      18.077  38.691  33.619  0.00  0.00    +0.000 A 
ATOM      7  C6  UNL     1      17.732  40.043  33.723  0.00  0.00    +0.000 A 
ATOM      8  C7  UNL     1      16.567  40.518  33.148  0.00  0.00    +0.000 A 
ATOM      9  N1  UNL     1      16.404  41.909  33.358  0.00  0.00    +0.000 N 
ATOM     10  C8  UNL     1      17.543  42.310  34.109  0.00  0.00    +0.000 C 
ATOM     11  O1  UNL     1      17.722  43.499  34.485  0.00  0.00    +0.000 OA
ATOM     12  C9  UNL     1      18.491  41.168  34.403  0.00  0.00    +0.000 C 
ATOM     13  N2  UNL     1      18.600  40.907  35.843  0.00  0.00    +0.000 NA
ATOM     14  C10 UNL     1      19.937  40.331  36.049  0.00  0.00    +0.000 C 
ATOM     15  C20 UNL     1      20.851  40.873  34.937  0.00  0.00    +0.000 C 
ATOM     16  C21 UNL     1      21.605  39.794  34.220  0.00  0.00    +0.000 C 
ATOM     17  O2  UNL     1      22.479  39.070  34.770  0.00  0.00    +0.000 OA
ATOM     18  N4  UNL     1      21.274  39.698  32.843  0.00  0.00    +0.000 N 
ATOM     19  C28 UNL     1      20.291  40.697  32.618  0.00  0.00    +0.000 C 
ATOM     20  O3  UNL     1      19.760  40.905  31.495  0.00  0.00    +0.000 OA
ATOM     21  C29 UNL     1      19.915  41.442  33.865  0.00  0.00    +0.000 C 
ATOM     22  H6  UNL     1      15.620  42.518  33.034  0.00  0.00    +0.000 HD
ATOM     23  H7  UNL     1      18.554  41.824  36.347  0.00  0.00    +0.000 HD
ENDROOT
BRANCH  18  24
ATOM     24  C22 UNL     1      21.574  38.605  31.959  0.00  0.00    +0.000 A 
ATOM     25  C23 UNL     1      22.503  38.765  30.915  0.00  0.00    +0.000 A 
ATOM     26  C24 UNL     1      22.810  37.691  30.075  0.00  0.00    +0.000 A 
ATOM     27  C25 UNL     1      22.194  36.452  30.268  0.00  0.00    +0.000 A 
ATOM     28  C26 UNL     1      21.271  36.284  31.304  0.00  0.00    +0.000 A 
ATOM     29  C27 UNL     1      20.963  37.355  32.148  0.00  0.00    +0.000 A 
ENDBRANCH  18  24
BRANCH  14  30
ATOM     30  C11 UNL     1      20.495  40.643  37.452  0.00  0.00    +0.000 C 
BRANCH  30  31
ATOM     31  C12 UNL     1      20.141  39.559  38.429  0.00  0.00    +0.000 A 
ATOM     32  C13 UNL     1      19.759  39.742  39.755  0.00  0.00    +0.000 A 
ATOM     33  N3  UNL     1      19.593  38.547  40.367  0.00  0.00    +0.000 N 
ATOM     34  C14 UNL     1      19.876  37.613  39.442  0.00  0.00    +0.000 A 
ATOM     35  C15 UNL     1      19.859  36.229  39.607  0.00  0.00    +0.000 A 
ATOM     36  C16 UNL     1      20.208  35.429  38.504  0.00  0.00    +0.000 A 
ATOM     37  C17 UNL     1      20.561  36.025  37.273  0.00  0.00    +0.000 A 
ATOM     38  C18 UNL     1      20.569  37.425  37.133  0.00  0.00    +0.000 A 
ATOM     39  C19 UNL     1      20.218  38.192  38.246  0.00  0.00    +0.000 A 
ATOM     40  H12 UNL     1      19.315  38.387  41.361  0.00  0.00    +0.000 HD
ENDBRANCH  30  31
ENDBRANCH  14  30
TORSDOF 3
ENDMDL
MODEL 3
REMARK VINA RESULT:    -7.806      2.682      4.337
REMARK INTER + INTRA:         -10.369
REMARK INTER:                  -8.980
REMARK INTRA:                  -1.389
REMARK UNBOUND:                -1.194
REMARK  Name = CNP0156845_1.pdb
REMARK  4 active torsions:
REMARK  status: ('A' for Active; 'I' for Inactive)
REMARK    1  A    between atoms: C1_1  and  C2_2
REMARK    2  A    between atoms: C10_14  and  C11_15
REMARK    3  A    between atoms: C11_15  and  C12_16
REMARK    4  A    between atoms: N4_28  and  C22_29
REMARK                            x       y       z     vdW  Elec       q    Type
REMARK                         _______ _______ _______ _____ _____    ______ ____
ROOT
ATOM      1  C1  UNL     1      19.037  29.659  37.546  0.00  0.00    +0.000 C 
ATOM      2  C2  UNL     1      19.458  31.088  37.730  0.00  0.00    +0.000 A 
ATOM      3  C3  UNL     1      19.769  31.595  39.008  0.00  0.00    +0.000 A 
ATOM      4  C4  UNL     1      20.169  32.935  39.166  0.00  0.00    +0.000 A 
ATOM      5 CL1  UNL     1      20.573  33.547  40.760  0.00  0.00    +0.000 Cl
ATOM      6  C5  UNL     1      20.258  33.785  38.053  0.00  0.00    +0.000 A 
ATOM      7  C6  UNL     1      19.957  33.273  36.786  0.00  0.00    +0.000 A 
ATOM      8  C7  UNL     1      19.565  31.956  36.635  0.00  0.00    +0.000 A 
ATOM      9  N1  UNL     1      19.315  31.631  35.279  0.00  0.00    +0.000 N 
ATOM     10  C8  UNL     1      19.574  32.827  34.555  0.00  0.00    +0.000 C 
ATOM     11  O1  UNL     1      19.441  32.904  33.304  0.00  0.00    +0.000 OA
ATOM     12  C9  UNL     1      20.010  33.974  35.441  0.00  0.00    +0.000 C 
ATOM     13  N2  UNL     1      19.050  35.083  35.411  0.00  0.00    +0.000 NA
ATOM     14  C10 UNL     1      19.827  36.297  35.697  0.00  0.00    +0.000 C 
ATOM     15  C20 UNL     1      21.267  36.051  35.217  0.00  0.00    +0.000 C 
ATOM     16  C21 UNL     1      22.294  36.367  36.262  0.00  0.00    +0.000 C 
ATOM     17  O2  UNL     1      22.500  37.527  36.709  0.00  0.00    +0.000 OA
ATOM     18  N4  UNL     1      23.051  35.235  36.665  0.00  0.00    +0.000 N 
ATOM     19  C28 UNL     1      22.539  34.147  35.911  0.00  0.00    +0.000 C 
ATOM     20  O3  UNL     1      22.979  32.971  36.008  0.00  0.00    +0.000 OA
ATOM     21  C29 UNL     1      21.391  34.535  35.026  0.00  0.00    +0.000 C 
ATOM     22  H6  UNL     1      19.009  30.714  34.886  0.00  0.00    +0.000 HD
ATOM     23  H7  UNL     1      18.666  35.158  34.439  0.00  0.00    +0.000 HD
ENDROOT
BRANCH  18  24
ATOM     24  C22 UNL     1      23.883  35.127  37.832  0.00  0.00    +0.000 A 
ATOM     25  C23 UNL     1      25.248  35.457  37.770  0.00  0.00    +0.000 A 
ATOM     26  C24 UNL     1      26.046  35.374  38.914  0.00  0.00    +0.000 A 
ATOM     27  C25 UNL     1      25.490  34.961  40.128  0.00  0.00    +0.000 A 
ATOM     28  C26 UNL     1      24.134  34.633  40.200  0.00  0.00    +0.000 A 
ATOM     29  C27 UNL     1      23.331  34.717  39.057  0.00  0.00    +0.000 A 
ENDBRANCH  18  24
BRANCH  14  30
ATOM     30  C11 UNL     1      19.211  37.550  35.040  0.00  0.00    +0.000 C 
BRANCH  30  31
ATOM     31  C12 UNL     1      19.424  38.767  35.892  0.00  0.00    +0.000 A 
ATOM     32  C13 UNL     1      19.709  40.051  35.435  0.00  0.00    +0.000 A 
ATOM     33  N3  UNL     1      19.919  40.888  36.476  0.00  0.00    +0.000 N 
ATOM     34  C14 UNL     1      19.779  40.142  37.586  0.00  0.00    +0.000 A 
ATOM     35  C15 UNL     1      19.920  40.562  38.908  0.00  0.00    +0.000 A 
ATOM     36  C16 UNL     1      19.745  39.606  39.925  0.00  0.00    +0.000 A 
ATOM     37  C17 UNL     1      19.437  38.267  39.601  0.00  0.00    +0.000 A 
ATOM     38  C18 UNL     1      19.301  37.870  38.258  0.00  0.00    +0.000 A 
ATOM     39  C19 UNL     1      19.480  38.841  37.271  0.00  0.00    +0.000 A 
ATOM     40  H12 UNL     1      20.157  41.904  36.424  0.00  0.00    +0.000 HD
ENDBRANCH  30  31
ENDBRANCH  14  30
TORSDOF 3
ENDMDL
MODEL 4
REMARK VINA RESULT:    -7.676      3.142      6.274
REMARK INTER + INTRA:         -10.215
REMARK INTER:                  -8.871
REMARK INTRA:                  -1.344
REMARK UNBOUND:                -1.194
REMARK  Name = CNP0156845_1.pdb
REMARK  4 active torsions:
REMARK  status: ('A' for Active; 'I' for Inactive)
REMARK    1  A    between atoms: C1_1  and  C2_2
REMARK    2  A    between atoms: C10_14  and  C11_15
REMARK    3  A    between atoms: C11_15  and  C12_16
REMARK    4  A    between atoms: N4_28  and  C22_29
REMARK                            x       y       z     vdW  Elec       q    Type
REMARK                         _______ _______ _______ _____ _____    ______ ____
ROOT
ATOM      1  C1  UNL     1      19.430  39.322  40.381  0.00  0.00    +0.000 C 
ATOM      2  C2  UNL     1      19.780  38.595  39.116  0.00  0.00    +0.000 A 
ATOM      3  C3  UNL     1      19.738  39.247  37.867  0.00  0.00    +0.000 A 
ATOM      4  C4  UNL     1      20.076  38.557  36.688  0.00  0.00    +0.000 A 
ATOM      5 CL1  UNL     1      20.039  39.388  35.144  0.00  0.00    +0.000 Cl
ATOM      6  C5  UNL     1      20.456  37.207  36.741  0.00  0.00    +0.000 A 
ATOM      7  C6  UNL     1      20.505  36.567  37.985  0.00  0.00    +0.000 A 
ATOM      8  C7  UNL     1      20.172  37.249  39.140  0.00  0.00    +0.000 A 
ATOM      9  N1  UNL     1      20.294  36.431  40.290  0.00  0.00    +0.000 N 
ATOM     10  C8  UNL     1      20.732  35.168  39.806  0.00  0.00    +0.000 C 
ATOM     11  O1  UNL     1      20.937  34.185  40.566  0.00  0.00    +0.000 OA
ATOM     12  C9  UNL     1      20.912  35.140  38.303  0.00  0.00    +0.000 C 
ATOM     13  N2  UNL     1      19.989  34.196  37.661  0.00  0.00    +0.000 NA
ATOM     14  C10 UNL     1      20.658  33.755  36.428  0.00  0.00    +0.000 C 
ATOM     15  C20 UNL     1      22.174  33.856  36.660  0.00  0.00    +0.000 C 
ATOM     16  C21 UNL     1      22.885  34.607  35.575  0.00  0.00    +0.000 C 
ATOM     17  O2  UNL     1      22.960  34.206  34.383  0.00  0.00    +0.000 OA
ATOM     18  N4  UNL     1      23.511  35.795  36.034  0.00  0.00    +0.000 N 
ATOM     19  C28 UNL     1      23.223  35.866  37.423  0.00  0.00    +0.000 C 
ATOM     20  O3  UNL     1      23.626  36.799  38.166  0.00  0.00    +0.000 OA
ATOM     21  C29 UNL     1      22.351  34.742  37.899  0.00  0.00    +0.000 C 
ATOM     22  H6  UNL     1      20.107  36.691  41.284  0.00  0.00    +0.000 HD
ATOM     23  H7  UNL     1      19.878  33.366  38.291  0.00  0.00    +0.000 HD
ENDROOT
BRANCH  18  24
ATOM     24  C22 UNL     1      24.003  36.877  35.225  0.00  0.00    +0.000 A 
ATOM     25  C23 UNL     1      23.118  37.830  34.692  0.00  0.00    +0.000 A 
ATOM     26  C24 UNL     1      23.604  38.894  33.928  0.00  0.00    +0.000 A 
ATOM     27  C25 UNL     1      24.976  39.016  33.689  0.00  0.00    +0.000 A 
ATOM     28  C26 UNL     1      25.863  38.074  34.216  0.00  0.00    +0.000 A 
ATOM     29  C27 UNL     1      25.380  37.009  34.983  0.00  0.00    +0.000 A 
ENDBRANCH  18  24
BRANCH  14  30
ATOM     30  C11 UNL     1      20.234  32.331  36.014  0.00  0.00    +0.000 C 
BRANCH  30  31
ATOM     31  C12 UNL     1      19.802  31.527  37.205  0.00  0.00    +0.000 A 
ATOM     32  C13 UNL     1      20.641  30.949  38.154  0.00  0.00    +0.000 A 
ATOM     33  N3  UNL     1      19.922  30.228  39.044  0.00  0.00    +0.000 N 
ATOM     34  C14 UNL     1      18.638  30.337  38.659  0.00  0.00    +0.000 A 
ATOM     35  C15 UNL     1      17.524  29.751  39.259  0.00  0.00    +0.000 A 
ATOM     36  C16 UNL     1      16.265  29.985  38.679  0.00  0.00    +0.000 A 
ATOM     37  C17 UNL     1      16.147  30.790  37.525  0.00  0.00    +0.000 A 
ATOM     38  C18 UNL     1      17.288  31.369  36.939  0.00  0.00    +0.000 A 
ATOM     39  C19 UNL     1      18.524  31.120  37.538  0.00  0.00    +0.000 A 
ATOM     40  H12 UNL     1      20.294  29.686  39.855  0.00  0.00    +0.000 HD
ENDBRANCH  30  31
ENDBRANCH  14  30
TORSDOF 3
ENDMDL
MODEL 5
REMARK VINA RESULT:    -7.616      2.846      7.535
REMARK INTER + INTRA:         -10.146
REMARK INTER:                  -8.575
REMARK INTRA:                  -1.570
REMARK UNBOUND:                -1.194
REMARK  Name = CNP0156845_1.pdb
REMARK  4 active torsions:
REMARK  status: ('A' for Active; 'I' for Inactive)
REMARK    1  A    between atoms: C1_1  and  C2_2
REMARK    2  A    between atoms: C10_14  and  C11_15
REMARK    3  A    between atoms: C11_15  and  C12_16
REMARK    4  A    between atoms: N4_28  and  C22_29
REMARK                            x       y       z     vdW  Elec       q    Type
REMARK                         _______ _______ _______ _____ _____    ______ ____
ROOT
ATOM      1  C1  UNL     1      17.737  41.321  33.887  0.00  0.00    +0.000 C 
ATOM      2  C2  UNL     1      18.271  39.988  34.323  0.00  0.00    +0.000 A 
ATOM      3  C3  UNL     1      18.063  38.831  33.546  0.00  0.00    +0.000 A 
ATOM      4  C4  UNL     1      18.575  37.588  33.963  0.00  0.00    +0.000 A 
ATOM      5 CL1  UNL     1      18.325  36.161  32.974  0.00  0.00    +0.000 Cl
ATOM      6  C5  UNL     1      19.297  37.486  35.161  0.00  0.00    +0.000 A 
ATOM      7  C6  UNL     1      19.509  38.639  35.924  0.00  0.00    +0.000 A 
ATOM      8  C7  UNL     1      19.004  39.858  35.511  0.00  0.00    +0.000 A 
ATOM      9  N1  UNL     1      19.334  40.900  36.413  0.00  0.00    +0.000 N 
ATOM     10  C8  UNL     1      20.091  40.277  37.442  0.00  0.00    +0.000 C 
ATOM     11  O1  UNL     1      20.546  40.914  38.429  0.00  0.00    +0.000 OA
ATOM     12  C9  UNL     1      20.278  38.790  37.224  0.00  0.00    +0.000 C 
ATOM     13  N2  UNL     1      19.640  38.000  38.283  0.00  0.00    +0.000 NA
ATOM     14  C10 UNL     1      20.405  36.747  38.368  0.00  0.00    +0.000 C 
ATOM     15  C20 UNL     1      21.840  37.049  37.906  0.00  0.00    +0.000 C 
ATOM     16  C21 UNL     1      22.331  36.095  36.859  0.00  0.00    +0.000 C 
ATOM     17  O2  UNL     1      22.514  34.865  37.066  0.00  0.00    +0.000 OA
ATOM     18  N4  UNL     1      22.620  36.724  35.619  0.00  0.00    +0.000 N 
ATOM     19  C28 UNL     1      22.318  38.098  35.810  0.00  0.00    +0.000 C 
ATOM     20  O3  UNL     1      22.457  38.968  34.910  0.00  0.00    +0.000 OA
ATOM     21  C29 UNL     1      21.772  38.394  37.175  0.00  0.00    +0.000 C 
ATOM     22  H6  UNL     1      19.081  41.910  36.343  0.00  0.00    +0.000 HD
ATOM     23  H7  UNL     1      19.749  38.515  39.189  0.00  0.00    +0.000 HD
ENDROOT
BRANCH  18  24
ATOM     24  C22 UNL     1      22.811  36.077  34.349  0.00  0.00    +0.000 A 
ATOM     25  C23 UNL     1      24.073  36.078  33.730  0.00  0.00    +0.000 A 
ATOM     26  C24 UNL     1      24.258  35.426  32.508  0.00  0.00    +0.000 A 
ATOM     27  C25 UNL     1      23.188  34.768  31.895  0.00  0.00    +0.000 A 
ATOM     28  C26 UNL     1      21.931  34.760  32.505  0.00  0.00    +0.000 A 
ATOM     29  C27 UNL     1      21.742  35.410  33.728  0.00  0.00    +0.000 A 
ENDBRANCH  18  24
BRANCH  14  30
ATOM     30  C11 UNL     1      20.374  36.141  39.785  0.00  0.00    +0.000 C 
BRANCH  30  31
ATOM     31  C12 UNL     1      20.706  34.678  39.756  0.00  0.00    +0.000 A 
ATOM     32  C13 UNL     1      19.862  33.653  39.335  0.00  0.00    +0.000 A 
ATOM     33  N3  UNL     1      20.453  32.450  39.517  0.00  0.00    +0.000 N 
ATOM     34  C14 UNL     1      21.657  32.706  40.059  0.00  0.00    +0.000 A 
ATOM     35  C15 UNL     1      22.625  31.778  40.441  0.00  0.00    +0.000 A 
ATOM     36  C16 UNL     1      23.817  32.265  41.006  0.00  0.00    +0.000 A 
ATOM     37  C17 UNL     1      24.013  33.653  41.176  0.00  0.00    +0.000 A 
ATOM     38  C18 UNL     1      23.019  34.568  40.782  0.00  0.00    +0.000 A 
ATOM     39  C19 UNL     1      21.847  34.055  40.223  0.00  0.00    +0.000 A 
ATOM     40  H12 UNL     1      20.047  31.514  39.295  0.00  0.00    +0.000 HD
ENDBRANCH  30  31
ENDBRANCH  14  30
TORSDOF 3
ENDMDL
MODEL 6
REMARK VINA RESULT:    -7.474     11.761     15.648
REMARK INTER + INTRA:          -9.978
REMARK INTER:                  -8.298
REMARK INTRA:                  -1.680
REMARK UNBOUND:                -1.194
REMARK  Name = CNP0156845_1.pdb
REMARK  4 active torsions:
REMARK  status: ('A' for Active; 'I' for Inactive)
REMARK    1  A    between atoms: C1_1  and  C2_2
REMARK    2  A    between atoms: C10_14  and  C11_15
REMARK    3  A    between atoms: C11_15  and  C12_16
REMARK    4  A    between atoms: N4_28  and  C22_29
REMARK                            x       y       z     vdW  Elec       q    Type
REMARK                         _______ _______ _______ _____ _____    ______ ____
ROOT
ATOM      1  C1  UNL     1      23.474  42.993  31.891  0.00  0.00    +0.000 C 
ATOM      2  C2  UNL     1      23.986  44.394  31.725  0.00  0.00    +0.000 A 
ATOM      3  C3  UNL     1      23.808  45.094  30.515  0.00  0.00    +0.000 A 
ATOM      4  C4  UNL     1      24.286  46.410  30.374  0.00  0.00    +0.000 A 
ATOM      5 CL1  UNL     1      24.039  47.276  28.869  0.00  0.00    +0.000 Cl
ATOM      6  C5  UNL     1      24.950  47.041  31.437  0.00  0.00    +0.000 A 
ATOM      7  C6  UNL     1      25.116  46.344  32.639  0.00  0.00    +0.000 A 
ATOM      8  C7  UNL     1      24.645  45.051  32.773  0.00  0.00    +0.000 A 
ATOM      9  N1  UNL     1      24.901  44.526  34.064  0.00  0.00    +0.000 N 
ATOM     10  C8  UNL     1      25.571  45.567  34.764  0.00  0.00    +0.000 C 
ATOM     11  O1  UNL     1      25.962  45.440  35.954  0.00  0.00    +0.000 OA
ATOM     12  C9  UNL     1      25.762  46.815  33.929  0.00  0.00    +0.000 C 
ATOM     13  N2  UNL     1      27.182  47.108  33.704  0.00  0.00    +0.000 NA
ATOM     14  C10 UNL     1      27.269  48.565  33.523  0.00  0.00    +0.000 C 
ATOM     15  C20 UNL     1      26.104  49.200  34.300  0.00  0.00    +0.000 C 
ATOM     16  C21 UNL     1      25.305  50.162  33.475  0.00  0.00    +0.000 C 
ATOM     17  O2  UNL     1      25.766  51.244  33.021  0.00  0.00    +0.000 OA
ATOM     18  N4  UNL     1      23.955  49.759  33.294  0.00  0.00    +0.000 N 
ATOM     19  C28 UNL     1      23.832  48.523  33.981  0.00  0.00    +0.000 C 
ATOM     20  O3  UNL     1      22.759  47.866  34.037  0.00  0.00    +0.000 OA
ATOM     21  C29 UNL     1      25.123  48.059  34.590  0.00  0.00    +0.000 C 
ATOM     22  H6  UNL     1      24.654  43.581  34.431  0.00  0.00    +0.000 HD
ATOM     23  H7  UNL     1      27.712  46.852  34.571  0.00  0.00    +0.000 HD
ENDROOT
BRANCH  18  24
ATOM     24  C22 UNL     1      23.023  50.277  32.330  0.00  0.00    +0.000 A 
ATOM     25  C23 UNL     1      21.904  51.020  32.746  0.00  0.00    +0.000 A 
ATOM     26  C24 UNL     1      21.016  51.543  31.802  0.00  0.00    +0.000 A 
ATOM     27  C25 UNL     1      21.235  51.330  30.439  0.00  0.00    +0.000 A 
ATOM     28  C26 UNL     1      22.346  50.594  30.017  0.00  0.00    +0.000 A 
ATOM     29  C27 UNL     1      23.238  50.070  30.958  0.00  0.00    +0.000 A 
ENDBRANCH  18  24
BRANCH  14  30
ATOM     30  C11 UNL     1      28.633  49.127  33.974  0.00  0.00    +0.000 C 
BRANCH  30  31
ATOM     31  C12 UNL     1      29.129  50.175  33.020  0.00  0.00    +0.000 A 
ATOM     32  C13 UNL     1      29.249  51.537  33.285  0.00  0.00    +0.000 A 
ATOM     33  N3  UNL     1      29.650  52.200  32.176  0.00  0.00    +0.000 N 
ATOM     34  C14 UNL     1      29.773  51.271  31.212  0.00  0.00    +0.000 A 
ATOM     35  C15 UNL     1      30.149  51.477  29.885  0.00  0.00    +0.000 A 
ATOM     36  C16 UNL     1      30.199  50.358  29.034  0.00  0.00    +0.000 A 
ATOM     37  C17 UNL     1      29.877  49.073  29.523  0.00  0.00    +0.000 A 
ATOM     38  C18 UNL     1      29.501  48.894  30.866  0.00  0.00    +0.000 A 
ATOM     39  C19 UNL     1      29.461  50.023  31.687  0.00  0.00    +0.000 A 
ATOM     40  H12 UNL     1      29.814  53.227  32.088  0.00  0.00    +0.000 HD
ENDBRANCH  30  31
ENDBRANCH  14  30
TORSDOF 3
ENDMDL
MODEL 7
REMARK VINA RESULT:    -7.353      3.837      7.519
REMARK INTER + INTRA:          -9.836
REMARK INTER:                  -8.460
REMARK INTRA:                  -1.376
REMARK UNBOUND:                -1.194
REMARK  Name = CNP0156845_1.pdb
REMARK  4 active torsions:
REMARK  status: ('A' for Active; 'I' for Inactive)
REMARK    1  A    between atoms: C1_1  and  C2_2
REMARK    2  A    between atoms: C10_14  and  C11_15
REMARK    3  A    between atoms: C11_15  and  C12_16
REMARK    4  A    between atoms: N4_28  and  C22_29
REMARK                            x       y       z     vdW  Elec       q    Type
REMARK                         _______ _______ _______ _____ _____    ______ ____
ROOT
ATOM      1  C1  UNL     1      19.023  39.294  40.410  0.00  0.00    +0.000 C 
ATOM      2  C2  UNL     1      19.743  38.422  39.424  0.00  0.00    +0.000 A 
ATOM      3  C3  UNL     1      20.061  37.084  39.732  0.00  0.00    +0.000 A 
ATOM      4  C4  UNL     1      20.731  36.275  38.795  0.00  0.00    +0.000 A 
ATOM      5 CL1  UNL     1      21.101  34.605  39.186  0.00  0.00    +0.000 Cl
ATOM      6  C5  UNL     1      21.095  36.793  37.544  0.00  0.00    +0.000 A 
ATOM      7  C6  UNL     1      20.769  38.119  37.239  0.00  0.00    +0.000 A 
ATOM      8  C7  UNL     1      20.111  38.911  38.162  0.00  0.00    +0.000 A 
ATOM      9  N1  UNL     1      19.865  40.213  37.661  0.00  0.00    +0.000 N 
ATOM     10  C8  UNL     1      20.407  40.216  36.347  0.00  0.00    +0.000 C 
ATOM     11  O1  UNL     1      20.373  41.231  35.602  0.00  0.00    +0.000 OA
ATOM     12  C9  UNL     1      21.023  38.889  35.956  0.00  0.00    +0.000 C 
ATOM     13  N2  UNL     1      22.465  39.008  35.715  0.00  0.00    +0.000 NA
ATOM     14  C10 UNL     1      22.800  37.951  34.750  0.00  0.00    +0.000 C 
ATOM     15  C20 UNL     1      21.543  37.674  33.908  0.00  0.00    +0.000 C 
ATOM     16  C21 UNL     1      21.189  36.219  33.844  0.00  0.00    +0.000 C 
ATOM     17  O2  UNL     1      21.913  35.349  33.291  0.00  0.00    +0.000 OA
ATOM     18  N4  UNL     1      19.929  35.923  34.427  0.00  0.00    +0.000 N 
ATOM     19  C28 UNL     1      19.426  37.164  34.898  0.00  0.00    +0.000 C 
ATOM     20  O3  UNL     1      18.314  37.285  35.477  0.00  0.00    +0.000 OA
ATOM     21  C29 UNL     1      20.377  38.304  34.679  0.00  0.00    +0.000 C 
ATOM     22  H6  UNL     1      19.388  41.006  38.145  0.00  0.00    +0.000 HD
ATOM     23  H7  UNL     1      22.647  39.936  35.264  0.00  0.00    +0.000 HD
ENDROOT
BRANCH  18  24
ATOM     24  C22 UNL     1      19.436  34.625  34.798  0.00  0.00    +0.000 A 
ATOM     25  C23 UNL     1      18.419  34.005  34.050  0.00  0.00    +0.000 A 
ATOM     26  C24 UNL     1      17.962  32.732  34.401  0.00  0.00    +0.000 A 
ATOM     27  C25 UNL     1      18.514  32.068  35.500  0.00  0.00    +0.000 A 
ATOM     28  C26 UNL     1      19.525  32.675  36.248  0.00  0.00    +0.000 A 
ATOM     29  C27 UNL     1      19.987  33.949  35.899  0.00  0.00    +0.000 A 
ENDBRANCH  18  24
BRANCH  14  30
ATOM     30  C11 UNL     1      24.008  38.329  33.868  0.00  0.00    +0.000 C 
BRANCH  30  31
ATOM     31  C12 UNL     1      25.266  37.678  34.365  0.00  0.00    +0.000 A 
ATOM     32  C13 UNL     1      25.342  36.527  35.147  0.00  0.00    +0.000 A 
ATOM     33  N3  UNL     1      26.627  36.268  35.480  0.00  0.00    +0.000 N 
ATOM     34  C14 UNL     1      27.361  37.249  34.926  0.00  0.00    +0.000 A 
ATOM     35  C15 UNL     1      28.742  37.419  35.007  0.00  0.00    +0.000 A 
ATOM     36  C16 UNL     1      29.308  38.532  34.360  0.00  0.00    +0.000 A 
ATOM     37  C17 UNL     1      28.489  39.441  33.654  0.00  0.00    +0.000 A 
ATOM     38  C18 UNL     1      27.098  39.246  33.588  0.00  0.00    +0.000 A 
ATOM     39  C19 UNL     1      26.565  38.131  34.239  0.00  0.00    +0.000 A 
ATOM     40  H12 UNL     1      26.973  35.474  36.063  0.00  0.00    +0.000 HD
ENDBRANCH  30  31
ENDBRANCH  14  30
TORSDOF 3
ENDMDL
MODEL 8
REMARK VINA RESULT:    -7.224      2.855      6.845
REMARK INTER + INTRA:          -9.684
REMARK INTER:                  -8.226
REMARK INTRA:                  -1.459
REMARK UNBOUND:                -1.194
REMARK  Name = CNP0156845_1.pdb
REMARK  4 active torsions:
REMARK  status: ('A' for Active; 'I' for Inactive)
REMARK    1  A    between atoms: C1_1  and  C2_2
REMARK    2  A    between atoms: C10_14  and  C11_15
REMARK    3  A    between atoms: C11_15  and  C12_16
REMARK    4  A    between atoms: N4_28  and  C22_29
REMARK                            x       y       z     vdW  Elec       q    Type
REMARK                         _______ _______ _______ _____ _____    ______ ____
ROOT
ATOM      1  C1  UNL     1      18.922  29.139  39.144  0.00  0.00    +0.000 C 
ATOM      2  C2  UNL     1      19.690  30.299  38.583  0.00  0.00    +0.000 A 
ATOM      3  C3  UNL     1      19.223  31.004  37.455  0.00  0.00    +0.000 A 
ATOM      4  C4  UNL     1      19.949  32.095  36.943  0.00  0.00    +0.000 A 
ATOM      5 CL1  UNL     1      19.343  32.975  35.552  0.00  0.00    +0.000 Cl
ATOM      6  C5  UNL     1      21.151  32.493  37.546  0.00  0.00    +0.000 A 
ATOM      7  C6  UNL     1      21.606  31.795  38.671  0.00  0.00    +0.000 A 
ATOM      8  C7  UNL     1      20.890  30.724  39.171  0.00  0.00    +0.000 A 
ATOM      9  N1  UNL     1      21.510  30.161  40.314  0.00  0.00    +0.000 N 
ATOM     10  C8  UNL     1      22.680  30.941  40.526  0.00  0.00    +0.000 C 
ATOM     11  O1  UNL     1      23.486  30.710  41.466  0.00  0.00    +0.000 OA
ATOM     12  C9  UNL     1      22.845  32.051  39.510  0.00  0.00    +0.000 C 
ATOM     13  N2  UNL     1      24.053  31.870  38.697  0.00  0.00    +0.000 NA
ATOM     14  C10 UNL     1      24.466  33.219  38.283  0.00  0.00    +0.000 C 
ATOM     15  C20 UNL     1      23.977  34.204  39.358  0.00  0.00    +0.000 C 
ATOM     16  C21 UNL     1      23.214  35.361  38.788  0.00  0.00    +0.000 C 
ATOM     17  O2  UNL     1      23.725  36.231  38.034  0.00  0.00    +0.000 OA
ATOM     18  N4  UNL     1      21.863  35.410  39.223  0.00  0.00    +0.000 N 
ATOM     19  C28 UNL     1      21.697  34.288  40.076  0.00  0.00    +0.000 C 
ATOM     20  O3  UNL     1      20.611  34.011  40.652  0.00  0.00    +0.000 OA
ATOM     21  C29 UNL     1      22.932  33.442  40.180  0.00  0.00    +0.000 C 
ATOM     22  H6  UNL     1      21.184  29.350  40.885  0.00  0.00    +0.000 HD
ATOM     23  H7  UNL     1      24.803  31.468  39.308  0.00  0.00    +0.000 HD
ENDROOT
BRANCH  18  24
ATOM     24  C22 UNL     1      20.800  36.188  38.647  0.00  0.00    +0.000 A 
ATOM     25  C23 UNL     1      20.437  36.014  37.300  0.00  0.00    +0.000 A 
ATOM     26  C24 UNL     1      19.386  36.755  36.752  0.00  0.00    +0.000 A 
ATOM     27  C25 UNL     1      18.691  37.674  37.542  0.00  0.00    +0.000 A 
ATOM     28  C26 UNL     1      19.044  37.852  38.882  0.00  0.00    +0.000 A 
ATOM     29  C27 UNL     1      20.094  37.112  39.434  0.00  0.00    +0.000 A 
ENDBRANCH  18  24
BRANCH  14  30
ATOM     30  C11 UNL     1      25.989  33.320  38.063  0.00  0.00    +0.000 C 
BRANCH  30  31
ATOM     31  C12 UNL     1      26.706  33.578  39.356  0.00  0.00    +0.000 A 
ATOM     32  C13 UNL     1      26.940  32.648  40.366  0.00  0.00    +0.000 A 
ATOM     33  N3  UNL     1      27.542  33.240  41.423  0.00  0.00    +0.000 N 
ATOM     34  C14 UNL     1      27.680  34.537  41.093  0.00  0.00    +0.000 A 
ATOM     35  C15 UNL     1      28.233  35.551  41.874  0.00  0.00    +0.000 A 
ATOM     36  C16 UNL     1      28.265  36.851  41.337  0.00  0.00    +0.000 A 
ATOM     37  C17 UNL     1      27.749  37.105  40.047  0.00  0.00    +0.000 A 
ATOM     38  C18 UNL     1      27.196  36.063  39.281  0.00  0.00    +0.000 A 
ATOM     39  C19 UNL     1      27.179  34.783  39.840  0.00  0.00    +0.000 A 
ATOM     40  H12 UNL     1      27.825  32.783  42.318  0.00  0.00    +0.000 HD
ENDBRANCH  30  31
ENDBRANCH  14  30
TORSDOF 3
ENDMDL
MODEL 9
REMARK VINA RESULT:    -7.201      5.389      8.235
REMARK INTER + INTRA:          -9.658
REMARK INTER:                  -8.167
REMARK INTRA:                  -1.491
REMARK UNBOUND:                -1.194
REMARK  Name = CNP0156845_1.pdb
REMARK  4 active torsions:
REMARK  status: ('A' for Active; 'I' for Inactive)
REMARK    1  A    between atoms: C1_1  and  C2_2
REMARK    2  A    between atoms: C10_14  and  C11_15
REMARK    3  A    between atoms: C11_15  and  C12_16
REMARK    4  A    between atoms: N4_28  and  C22_29
REMARK                            x       y       z     vdW  Elec       q    Type
REMARK                         _______ _______ _______ _____ _____    ______ ____
ROOT
ATOM      1  C1  UNL     1      21.549  34.263  31.492  0.00  0.00    +0.000 C 
ATOM      2  C2  UNL     1      20.897  35.442  32.152  0.00  0.00    +0.000 A 
ATOM      3  C3  UNL     1      19.687  35.302  32.860  0.00  0.00    +0.000 A 
ATOM      4  C4  UNL     1      19.089  36.415  33.481  0.00  0.00    +0.000 A 
ATOM      5 CL1  UNL     1      17.593  36.221  34.376  0.00  0.00    +0.000 Cl
ATOM      6  C5  UNL     1      19.690  37.680  33.399  0.00  0.00    +0.000 A 
ATOM      7  C6  UNL     1      20.897  37.811  32.703  0.00  0.00    +0.000 A 
ATOM      8  C7  UNL     1      21.481  36.715  32.095  0.00  0.00    +0.000 A 
ATOM      9  N1  UNL     1      22.697  37.054  31.452  0.00  0.00    +0.000 N 
ATOM     10  C8  UNL     1      22.869  38.446  31.686  0.00  0.00    +0.000 C 
ATOM     11  O1  UNL     1      23.856  39.091  31.242  0.00  0.00    +0.000 OA
ATOM     12  C9  UNL     1      21.749  39.052  32.504  0.00  0.00    +0.000 C 
ATOM     13  N2  UNL     1      21.002  40.061  31.744  0.00  0.00    +0.000 NA
ATOM     14  C10 UNL     1      20.465  40.999  32.740  0.00  0.00    +0.000 C 
ATOM     15  C20 UNL     1      21.413  40.985  33.951  0.00  0.00    +0.000 C 
ATOM     16  C21 UNL     1      20.699  40.774  35.252  0.00  0.00    +0.000 C 
ATOM     17  O2  UNL     1      19.876  41.596  35.737  0.00  0.00    +0.000 OA
ATOM     18  N4  UNL     1      21.078  39.576  35.912  0.00  0.00    +0.000 N 
ATOM     19  C28 UNL     1      22.037  38.962  35.064  0.00  0.00    +0.000 C 
ATOM     20  O3  UNL     1      22.600  37.868  35.335  0.00  0.00    +0.000 OA
ATOM     21  C29 UNL     1      22.273  39.725  33.794  0.00  0.00    +0.000 C 
ATOM     22  H6  UNL     1      23.338  36.423  30.921  0.00  0.00    +0.000 HD
ATOM     23  H7  UNL     1      21.678  40.579  31.134  0.00  0.00    +0.000 HD
ENDROOT
BRANCH  18  24
ATOM     24  C22 UNL     1      20.386  38.933  36.996  0.00  0.00    +0.000 A 
ATOM     25  C23 UNL     1      19.347  38.021  36.740  0.00  0.00    +0.000 A 
ATOM     26  C24 UNL     1      18.695  37.381  37.798  0.00  0.00    +0.000 A 
ATOM     27  C25 UNL     1      19.073  37.646  39.117  0.00  0.00    +0.000 A 
ATOM     28  C26 UNL     1      20.106  38.549  39.380  0.00  0.00    +0.000 A 
ATOM     29  C27 UNL     1      20.762  39.191  38.324  0.00  0.00    +0.000 A 
ENDBRANCH  18  24
BRANCH  14  30
ATOM     30  C11 UNL     1      20.290  42.420  32.166  0.00  0.00    +0.000 C 
BRANCH  30  31
ATOM     31  C12 UNL     1      19.029  43.057  32.672  0.00  0.00    +0.000 A 
ATOM     32  C13 UNL     1      18.928  43.949  33.736  0.00  0.00    +0.000 A 
ATOM     33  N3  UNL     1      17.633  44.261  33.970  0.00  0.00    +0.000 N 
ATOM     34  C14 UNL     1      16.915  43.566  33.070  0.00  0.00    +0.000 A 
ATOM     35  C15 UNL     1      15.528  43.549  32.929  0.00  0.00    +0.000 A 
ATOM     36  C16 UNL     1      14.979  42.732  31.924  0.00  0.00    +0.000 A 
ATOM     37  C17 UNL     1      15.819  41.960  31.092  0.00  0.00    +0.000 A 
ATOM     38  C18 UNL     1      17.215  41.996  31.256  0.00  0.00    +0.000 A 
ATOM     39  C19 UNL     1      17.732  42.816  32.262  0.00  0.00    +0.000 A 
ATOM     40  H12 UNL     1      17.268  44.901  34.710  0.00  0.00    +0.000 HD
ENDBRANCH  30  31
ENDBRANCH  14  30
TORSDOF 3
ENDMDL
MODEL 10
REMARK VINA RESULT:    -7.052      2.234      5.191
REMARK INTER + INTRA:          -9.482
REMARK INTER:                  -8.118
REMARK INTRA:                  -1.364
REMARK UNBOUND:                -1.194
REMARK  Name = CNP0156845_1.pdb
REMARK  4 active torsions:
REMARK  status: ('A' for Active; 'I' for Inactive)
REMARK    1  A    between atoms: C1_1  and  C2_2
REMARK    2  A    between atoms: C10_14  and  C11_15
REMARK    3  A    between atoms: C11_15  and  C12_16
REMARK    4  A    between atoms: N4_28  and  C22_29
REMARK                            x       y       z     vdW  Elec       q    Type
REMARK                         _______ _______ _______ _____ _____    ______ ____
ROOT
ATOM      1  C1  UNL     1      27.124  33.861  33.514  0.00  0.00    +0.000 C 
ATOM      2  C2  UNL     1      25.965  33.740  34.458  0.00  0.00    +0.000 A 
ATOM      3  C3  UNL     1      25.631  32.503  35.045  0.00  0.00    +0.000 A 
ATOM      4  C4  UNL     1      24.545  32.404  35.935  0.00  0.00    +0.000 A 
ATOM      5 CL1  UNL     1      24.154  30.862  36.674  0.00  0.00    +0.000 Cl
ATOM      6  C5  UNL     1      23.777  33.537  36.245  0.00  0.00    +0.000 A 
ATOM      7  C6  UNL     1      24.119  34.764  35.667  0.00  0.00    +0.000 A 
ATOM      8  C7  UNL     1      25.187  34.857  34.794  0.00  0.00    +0.000 A 
ATOM      9  N1  UNL     1      25.373  36.182  34.327  0.00  0.00    +0.000 N 
ATOM     10  C8  UNL     1      24.355  36.947  34.957  0.00  0.00    +0.000 C 
ATOM     11  O1  UNL     1      24.215  38.183  34.759  0.00  0.00    +0.000 OA
ATOM     12  C9  UNL     1      23.471  36.122  35.869  0.00  0.00    +0.000 C 
ATOM     13  N2  UNL     1      22.081  36.094  35.401  0.00  0.00    +0.000 NA
ATOM     14  C10 UNL     1      21.256  35.896  36.601  0.00  0.00    +0.000 C 
ATOM     15  C20 UNL     1      22.023  36.489  37.795  0.00  0.00    +0.000 C 
ATOM     16  C21 UNL     1      22.135  35.540  38.950  0.00  0.00    +0.000 C 
ATOM     17  O2  UNL     1      21.146  35.133  39.617  0.00  0.00    +0.000 OA
ATOM     18  N4  UNL     1      23.474  35.180  39.252  0.00  0.00    +0.000 N 
ATOM     19  C28 UNL     1      24.276  35.868  38.304  0.00  0.00    +0.000 C 
ATOM     20  O3  UNL     1      25.533  35.785  38.272  0.00  0.00    +0.000 OA
ATOM     21  C29 UNL     1      23.470  36.661  37.319  0.00  0.00    +0.000 C 
ATOM     22  H6  UNL     1      26.101  36.530  33.664  0.00  0.00    +0.000 HD
ATOM     23  H7  UNL     1      21.852  37.032  34.994  0.00  0.00    +0.000 HD
ENDROOT
BRANCH  18  24
ATOM     24  C22 UNL     1      23.906  34.084  40.076  0.00  0.00    +0.000 A 
ATOM     25  C23 UNL     1      23.634  32.757  39.700  0.00  0.00    +0.000 A 
ATOM     26  C24 UNL     1      24.079  31.695  40.493  0.00  0.00    +0.000 A 
ATOM     27  C25 UNL     1      24.797  31.948  41.665  0.00  0.00    +0.000 A 
ATOM     28  C26 UNL     1      25.074  33.264  42.045  0.00  0.00    +0.000 A 
ATOM     29  C27 UNL     1      24.632  34.329  41.253  0.00  0.00    +0.000 A 
ENDBRANCH  18  24
BRANCH  14  30
ATOM     30  C11 UNL     1      19.854  36.523  36.454  0.00  0.00    +0.000 C 
BRANCH  30  31
ATOM     31  C12 UNL     1      19.878  37.987  36.783  0.00  0.00    +0.000 A 
ATOM     32  C13 UNL     1      20.202  39.021  35.909  0.00  0.00    +0.000 A 
ATOM     33  N3  UNL     1      20.201  40.207  36.559  0.00  0.00    +0.000 N 
ATOM     34  C14 UNL     1      19.889  39.930  37.838  0.00  0.00    +0.000 A 
ATOM     35  C15 UNL     1      19.782  40.832  38.895  0.00  0.00    +0.000 A 
ATOM     36  C16 UNL     1      19.458  40.323  40.165  0.00  0.00    +0.000 A 
ATOM     37  C17 UNL     1      19.251  38.938  40.348  0.00  0.00    +0.000 A 
ATOM     38  C18 UNL     1      19.366  38.049  39.264  0.00  0.00    +0.000 A 
ATOM     39  C19 UNL     1      19.688  38.584  38.015  0.00  0.00    +0.000 A 
ATOM     40  H12 UNL     1      20.415  41.144  36.150  0.00  0.00    +0.000 HD
ENDBRANCH  30  31
ENDBRANCH  14  30
TORSDOF 3
ENDMDL
