MODEL 1
REMARK VINA RESULT:    -8.930      0.000      0.000
REMARK INTER + INTRA:         -11.926
REMARK INTER:                 -10.496
REMARK INTRA:                  -1.430
REMARK UNBOUND:                -1.430
REMARK  Name = CNP0156845_1.pdb
REMARK  4 active torsions:
REMARK  status: ('A' for Active; 'I' for Inactive)
REMARK    1  A    between atoms: C1_1  and  C2_2
REMARK    2  A    between atoms: C10_14  and  C11_15
REMARK    3  A    between atoms: C11_15  and  C12_16
REMARK    4  A    between atoms: N4_28  and  C22_29
REMARK                            x       y       z     vdW  Elec       q    Type
REMARK                         _______ _______ _______ _____ _____    ______ ____
ROOT
ATOM      1  C1  UNL     1      65.540  57.058  73.217  0.00  0.00    +0.000 C 
ATOM      2  C2  UNL     1      64.061  56.933  73.003  0.00  0.00    +0.000 A 
ATOM      3  C3  UNL     1      63.296  58.029  72.554  0.00  0.00    +0.000 A 
ATOM      4  C4  UNL     1      61.910  57.897  72.350  0.00  0.00    +0.000 A 
ATOM      5 CL1  UNL     1      60.975  59.264  71.771  0.00  0.00    +0.000 Cl
ATOM      6  C5  UNL     1      61.270  56.673  72.597  0.00  0.00    +0.000 A 
ATOM      7  C6  UNL     1      62.036  55.586  73.033  0.00  0.00    +0.000 A 
ATOM      8  C7  UNL     1      63.397  55.720  73.232  0.00  0.00    +0.000 A 
ATOM      9  N1  UNL     1      63.989  54.507  73.665  0.00  0.00    +0.000 N 
ATOM     10  C8  UNL     1      62.920  53.573  73.732  0.00  0.00    +0.000 C 
ATOM     11  O1  UNL     1      63.086  52.378  74.096  0.00  0.00    +0.000 OA
ATOM     12  C9  UNL     1      61.586  54.168  73.333  0.00  0.00    +0.000 C 
ATOM     13  N2  UNL     1      60.632  54.164  74.447  0.00  0.00    +0.000 NA
ATOM     14  C10 UNL     1      59.297  54.099  73.835  0.00  0.00    +0.000 C 
ATOM     15  C20 UNL     1      59.442  53.381  72.482  0.00  0.00    +0.000 C 
ATOM     16  C21 UNL     1      58.815  54.135  71.349  0.00  0.00    +0.000 C 
ATOM     17  O2  UNL     1      57.577  54.350  71.253  0.00  0.00    +0.000 OA
ATOM     18  N4  UNL     1      59.751  54.544  70.362  0.00  0.00    +0.000 N 
ATOM     19  C28 UNL     1      61.013  54.084  70.821  0.00  0.00    +0.000 C 
ATOM     20  O3  UNL     1      62.088  54.268  70.190  0.00  0.00    +0.000 OA
ATOM     21  C29 UNL     1      60.939  53.402  72.155  0.00  0.00    +0.000 C 
ATOM     22  H6  UNL     1      64.994  54.329  73.887  0.00  0.00    +0.000 HD
ATOM     23  H7  UNL     1      60.782  53.290  75.005  0.00  0.00    +0.000 HD
ENDROOT
BRANCH  18  24
ATOM     24  C22 UNL     1      59.542  55.522  69.329  0.00  0.00    +0.000 A 
ATOM     25  C23 UNL     1      59.363  56.878  69.654  0.00  0.00    +0.000 A 
ATOM     26  C24 UNL     1      59.185  57.827  68.643  0.00  0.00    +0.000 A 
ATOM     27  C25 UNL     1      59.184  57.431  67.303  0.00  0.00    +0.000 A 
ATOM     28  C26 UNL     1      59.362  56.086  66.971  0.00  0.00    +0.000 A 
ATOM     29  C27 UNL     1      59.543  55.133  67.979  0.00  0.00    +0.000 A 
ENDBRANCH  18  24
BRANCH  14  30
ATOM     30  C11 UNL     1      58.271  53.398  74.748  0.00  0.00    +0.000 C 
BRANCH  30  31
ATOM     31  C12 UNL     1      57.171  54.338  75.148  0.00  0.00    +0.000 A 
ATOM     32  C13 UNL     1      56.388  55.101  74.285  0.00  0.00    +0.000 A 
ATOM     33  N3  UNL     1      55.549  55.896  74.988  0.00  0.00    +0.000 N 
ATOM     34  C14 UNL     1      55.803  55.650  76.285  0.00  0.00    +0.000 A 
ATOM     35  C15 UNL     1      55.197  56.244  77.391  0.00  0.00    +0.000 A 
ATOM     36  C16 UNL     1      55.628  55.847  78.670  0.00  0.00    +0.000 A 
ATOM     37  C17 UNL     1      56.643  54.877  78.813  0.00  0.00    +0.000 A 
ATOM     38  C18 UNL     1      57.238  54.293  77.680  0.00  0.00    +0.000 A 
ATOM     39  C19 UNL     1      56.790  54.706  76.424  0.00  0.00    +0.000 A 
ATOM     40  H12 UNL     1      54.858  56.574  74.598  0.00  0.00    +0.000 HD
ENDBRANCH  30  31
ENDBRANCH  14  30
TORSDOF 3
ENDMDL
