
MODEL 3
REMARK VINA RESULT:    -8.766      3.011      7.841
REMARK INTER + INTRA:         -11.734
REMARK INTER:                 -10.303
REMARK INTRA:                  -1.431
REMARK UNBOUND:                -1.430
REMARK  Name = CNP0156845_1.pdb
REMARK  4 active torsions:
REMARK  status: ('A' for Active; 'I' for Inactive)
REMARK    1  A    between atoms: C1_1  and  C2_2
REMARK    2  A    between atoms: C10_14  and  C11_15
REMARK    3  A    between atoms: C11_15  and  C12_16
REMARK    4  A    between atoms: N4_28  and  C22_29
REMARK                            x       y       z     vdW  Elec       q    Type
REMARK                         _______ _______ _______ _____ _____    ______ ____
ROOT
ATOM      1  C1  UNL     1      63.933  57.591  72.897  0.00  0.00    +0.000 C 
ATOM      2  C2  UNL     1      62.850  56.798  72.226  0.00  0.00    +0.000 A 
ATOM      3  C3  UNL     1      62.753  55.403  72.403  0.00  0.00    +0.000 A 
ATOM      4  C4  UNL     1      61.728  54.672  71.774  0.00  0.00    +0.000 A 
ATOM      5 CL1  UNL     1      61.608  52.940  72.022  0.00  0.00    +0.000 Cl
ATOM      6  C5  UNL     1      60.791  55.324  70.958  0.00  0.00    +0.000 A 
ATOM      7  C6  UNL     1      60.886  56.710  70.793  0.00  0.00    +0.000 A 
ATOM      8  C7  UNL     1      61.895  57.424  71.413  0.00  0.00    +0.000 A 
ATOM      9  N1  UNL     1      61.812  58.810  71.128  0.00  0.00    +0.000 N 
ATOM     10  C8  UNL     1      60.679  58.951  70.282  0.00  0.00    +0.000 C 
ATOM     11  O1  UNL     1      60.310  60.064  69.822  0.00  0.00    +0.000 OA
ATOM     12  C9  UNL     1      59.984  57.636  69.997  0.00  0.00    +0.000 C 
ATOM     13  N2  UNL     1      60.036  57.290  68.572  0.00  0.00    +0.000 NA
ATOM     14  C10 UNL     1      58.848  56.462  68.315  0.00  0.00    +0.000 C 
ATOM     15  C20 UNL     1      57.768  56.873  69.329  0.00  0.00    +0.000 C 
ATOM     16  C21 UNL     1      57.176  55.706  70.060  0.00  0.00    +0.000 C 
ATOM     17  O2  UNL     1      56.496  54.804  69.501  0.00  0.00    +0.000 OA
ATOM     18  N4  UNL     1      57.414  55.742  71.459  0.00  0.00    +0.000 N 
ATOM     19  C28 UNL     1      58.174  56.919  71.686  0.00  0.00    +0.000 C 
ATOM     20  O3  UNL     1      58.569  57.278  72.827  0.00  0.00    +0.000 OA
ATOM     21  C29 UNL     1      58.498  57.661  70.423  0.00  0.00    +0.000 C 
ATOM     22  H6  UNL     1      62.442  59.571  71.465  0.00  0.00    +0.000 HD
ATOM     23  H7  UNL     1      59.948  58.173  68.016  0.00  0.00    +0.000 HD
ENDROOT
BRANCH  18  24
ATOM     24  C22 UNL     1      57.256  54.655  72.388  0.00  0.00    +0.000 A 
ATOM     25  C23 UNL     1      56.232  54.682  73.351  0.00  0.00    +0.000 A 
ATOM     26  C24 UNL     1      56.067  53.612  74.234  0.00  0.00    +0.000 A 
ATOM     27  C25 UNL     1      56.921  52.507  74.164  0.00  0.00    +0.000 A 
ATOM     28  C26 UNL     1      57.940  52.472  73.208  0.00  0.00    +0.000 A 
ATOM     29  C27 UNL     1      58.107  53.540  72.321  0.00  0.00    +0.000 A 
ENDBRANCH  18  24
BRANCH  14  30
ATOM     30  C11 UNL     1      58.350  56.593  66.862  0.00  0.00    +0.000 C 
BRANCH  30  31
ATOM     31  C12 UNL     1      58.269  55.252  66.193  0.00  0.00    +0.000 A 
ATOM     32  C13 UNL     1      58.407  54.014  66.816  0.00  0.00    +0.000 A 
ATOM     33  N3  UNL     1      58.359  53.018  65.902  0.00  0.00    +0.000 N 
ATOM     34  C14 UNL     1      58.203  53.616  64.708  0.00  0.00    +0.000 A 
ATOM     35  C15 UNL     1      58.118  53.000  63.460  0.00  0.00    +0.000 A 
ATOM     36  C16 UNL     1      57.971  53.822  62.329  0.00  0.00    +0.000 A 
ATOM     37  C17 UNL     1      57.914  55.226  62.468  0.00  0.00    +0.000 A 
ATOM     38  C18 UNL     1      58.003  55.822  63.739  0.00  0.00    +0.000 A 
ATOM     39  C19 UNL     1      58.148  54.980  64.844  0.00  0.00    +0.000 A 
ATOM     40  H12 UNL     1      58.442  51.994  66.090  0.00  0.00    +0.000 HD
ENDBRANCH  30  31
ENDBRANCH  14  30
TORSDOF 3
ENDMDL
