MODEL 1
REMARK VINA RESULT:    -8.930      0.000      0.000
REMARK INTER + INTRA:         -11.926
REMARK INTER:                 -10.496
REMARK INTRA:                  -1.430
REMARK UNBOUND:                -1.430
REMARK  Name = CNP0156845_1.pdb
REMARK  4 active torsions:
REMARK  status: ('A' for Active; 'I' for Inactive)
REMARK    1  A    between atoms: C1_1  and  C2_2
REMARK    2  A    between atoms: C10_14  and  C11_15
REMARK    3  A    between atoms: C11_15  and  C12_16
REMARK    4  A    between atoms: N4_28  and  C22_29
REMARK                            x       y       z     vdW  Elec       q    Type
REMARK                         _______ _______ _______ _____ _____    ______ ____
ROOT
ATOM      1  C1  UNL     1      65.540  57.058  73.217  0.00  0.00    +0.000 C 
ATOM      2  C2  UNL     1      64.061  56.933  73.003  0.00  0.00    +0.000 A 
ATOM      3  C3  UNL     1      63.296  58.029  72.554  0.00  0.00    +0.000 A 
ATOM      4  C4  UNL     1      61.910  57.897  72.350  0.00  0.00    +0.000 A 
ATOM      5 CL1  UNL     1      60.975  59.264  71.771  0.00  0.00    +0.000 Cl
ATOM      6  C5  UNL     1      61.270  56.673  72.597  0.00  0.00    +0.000 A 
ATOM      7  C6  UNL     1      62.036  55.586  73.033  0.00  0.00    +0.000 A 
ATOM      8  C7  UNL     1      63.397  55.720  73.232  0.00  0.00    +0.000 A 
ATOM      9  N1  UNL     1      63.989  54.507  73.665  0.00  0.00    +0.000 N 
ATOM     10  C8  UNL     1      62.920  53.573  73.732  0.00  0.00    +0.000 C 
ATOM     11  O1  UNL     1      63.086  52.378  74.096  0.00  0.00    +0.000 OA
ATOM     12  C9  UNL     1      61.586  54.168  73.333  0.00  0.00    +0.000 C 
ATOM     13  N2  UNL     1      60.632  54.164  74.447  0.00  0.00    +0.000 NA
ATOM     14  C10 UNL     1      59.297  54.099  73.835  0.00  0.00    +0.000 C 
ATOM     15  C20 UNL     1      59.442  53.381  72.482  0.00  0.00    +0.000 C 
ATOM     16  C21 UNL     1      58.815  54.135  71.349  0.00  0.00    +0.000 C 
ATOM     17  O2  UNL     1      57.577  54.350  71.253  0.00  0.00    +0.000 OA
ATOM     18  N4  UNL     1      59.751  54.544  70.362  0.00  0.00    +0.000 N 
ATOM     19  C28 UNL     1      61.013  54.084  70.821  0.00  0.00    +0.000 C 
ATOM     20  O3  UNL     1      62.088  54.268  70.190  0.00  0.00    +0.000 OA
ATOM     21  C29 UNL     1      60.939  53.402  72.155  0.00  0.00    +0.000 C 
ATOM     22  H6  UNL     1      64.994  54.329  73.887  0.00  0.00    +0.000 HD
ATOM     23  H7  UNL     1      60.782  53.290  75.005  0.00  0.00    +0.000 HD
ENDROOT
BRANCH  18  24
ATOM     24  C22 UNL     1      59.542  55.522  69.329  0.00  0.00    +0.000 A 
ATOM     25  C23 UNL     1      59.363  56.878  69.654  0.00  0.00    +0.000 A 
ATOM     26  C24 UNL     1      59.185  57.827  68.643  0.00  0.00    +0.000 A 
ATOM     27  C25 UNL     1      59.184  57.431  67.303  0.00  0.00    +0.000 A 
ATOM     28  C26 UNL     1      59.362  56.086  66.971  0.00  0.00    +0.000 A 
ATOM     29  C27 UNL     1      59.543  55.133  67.979  0.00  0.00    +0.000 A 
ENDBRANCH  18  24
BRANCH  14  30
ATOM     30  C11 UNL     1      58.271  53.398  74.748  0.00  0.00    +0.000 C 
BRANCH  30  31
ATOM     31  C12 UNL     1      57.171  54.338  75.148  0.00  0.00    +0.000 A 
ATOM     32  C13 UNL     1      56.388  55.101  74.285  0.00  0.00    +0.000 A 
ATOM     33  N3  UNL     1      55.549  55.896  74.988  0.00  0.00    +0.000 N 
ATOM     34  C14 UNL     1      55.803  55.650  76.285  0.00  0.00    +0.000 A 
ATOM     35  C15 UNL     1      55.197  56.244  77.391  0.00  0.00    +0.000 A 
ATOM     36  C16 UNL     1      55.628  55.847  78.670  0.00  0.00    +0.000 A 
ATOM     37  C17 UNL     1      56.643  54.877  78.813  0.00  0.00    +0.000 A 
ATOM     38  C18 UNL     1      57.238  54.293  77.680  0.00  0.00    +0.000 A 
ATOM     39  C19 UNL     1      56.790  54.706  76.424  0.00  0.00    +0.000 A 
ATOM     40  H12 UNL     1      54.858  56.574  74.598  0.00  0.00    +0.000 HD
ENDBRANCH  30  31
ENDBRANCH  14  30
TORSDOF 3
ENDMDL
MODEL 2
REMARK VINA RESULT:    -8.800      1.280      1.909
REMARK INTER + INTRA:         -11.774
REMARK INTER:                 -10.197
REMARK INTRA:                  -1.577
REMARK UNBOUND:                -1.430
REMARK  Name = CNP0156845_1.pdb
REMARK  4 active torsions:
REMARK  status: ('A' for Active; 'I' for Inactive)
REMARK    1  A    between atoms: C1_1  and  C2_2
REMARK    2  A    between atoms: C10_14  and  C11_15
REMARK    3  A    between atoms: C11_15  and  C12_16
REMARK    4  A    between atoms: N4_28  and  C22_29
REMARK                            x       y       z     vdW  Elec       q    Type
REMARK                         _______ _______ _______ _____ _____    ______ ____
ROOT
ATOM      1  C1  UNL     1      65.543  56.889  73.185  0.00  0.00    +0.000 C 
ATOM      2  C2  UNL     1      64.059  56.803  72.979  0.00  0.00    +0.000 A 
ATOM      3  C3  UNL     1      63.321  57.917  72.533  0.00  0.00    +0.000 A 
ATOM      4  C4  UNL     1      61.930  57.822  72.338  0.00  0.00    +0.000 A 
ATOM      5 CL1  UNL     1      61.028  59.212  71.763  0.00  0.00    +0.000 Cl
ATOM      6  C5  UNL     1      61.260  56.615  72.590  0.00  0.00    +0.000 A 
ATOM      7  C6  UNL     1      62.000  55.509  73.023  0.00  0.00    +0.000 A 
ATOM      8  C7  UNL     1      63.366  55.607  73.214  0.00  0.00    +0.000 A 
ATOM      9  N1  UNL     1      63.929  54.381  73.644  0.00  0.00    +0.000 N 
ATOM     10  C8  UNL     1      62.836  53.474  73.719  0.00  0.00    +0.000 C 
ATOM     11  O1  UNL     1      62.974  52.276  74.083  0.00  0.00    +0.000 OA
ATOM     12  C9  UNL     1      61.516  54.103  73.327  0.00  0.00    +0.000 C 
ATOM     13  N2  UNL     1      60.569  54.125  74.447  0.00  0.00    +0.000 NA
ATOM     14  C10 UNL     1      59.229  54.093  73.842  0.00  0.00    +0.000 C 
ATOM     15  C20 UNL     1      59.347  53.371  72.489  0.00  0.00    +0.000 C 
ATOM     16  C21 UNL     1      58.733  54.140  71.359  0.00  0.00    +0.000 C 
ATOM     17  O2  UNL     1      57.501  54.387  71.270  0.00  0.00    +0.000 OA
ATOM     18  N4  UNL     1      59.674  54.524  70.367  0.00  0.00    +0.000 N 
ATOM     19  C28 UNL     1      60.926  54.031  70.819  0.00  0.00    +0.000 C 
ATOM     20  O3  UNL     1      62.001  54.187  70.181  0.00  0.00    +0.000 OA
ATOM     21  C29 UNL     1      60.843  53.352  72.154  0.00  0.00    +0.000 C 
ATOM     22  H6  UNL     1      64.930  54.176  73.860  0.00  0.00    +0.000 HD
ATOM     23  H7  UNL     1      60.700  53.248  75.005  0.00  0.00    +0.000 HD
ENDROOT
BRANCH  18  24
ATOM     24  C22 UNL     1      59.484  55.505  69.333  0.00  0.00    +0.000 A 
ATOM     25  C23 UNL     1      59.325  56.864  69.659  0.00  0.00    +0.000 A 
ATOM     26  C24 UNL     1      59.165  57.816  68.649  0.00  0.00    +0.000 A 
ATOM     27  C25 UNL     1      59.163  57.422  67.308  0.00  0.00    +0.000 A 
ATOM     28  C26 UNL     1      59.322  56.075  66.975  0.00  0.00    +0.000 A 
ATOM     29  C27 UNL     1      59.484  55.118  67.983  0.00  0.00    +0.000 A 
ENDBRANCH  18  24
BRANCH  14  30
ATOM     30  C11 UNL     1      58.191  53.420  74.762  0.00  0.00    +0.000 C 
BRANCH  30  31
ATOM     31  C12 UNL     1      56.849  54.082  74.640  0.00  0.00    +0.000 A 
ATOM     32  C13 UNL     1      56.564  55.417  74.915  0.00  0.00    +0.000 A 
ATOM     33  N3  UNL     1      55.240  55.655  74.776  0.00  0.00    +0.000 N 
ATOM     34  C14 UNL     1      54.685  54.481  74.428  0.00  0.00    +0.000 A 
ATOM     35  C15 UNL     1      53.336  54.222  74.189  0.00  0.00    +0.000 A 
ATOM     36  C16 UNL     1      52.968  52.908  73.849  0.00  0.00    +0.000 A 
ATOM     37  C17 UNL     1      53.946  51.893  73.756  0.00  0.00    +0.000 A 
ATOM     38  C18 UNL     1      55.300  52.182  74.002  0.00  0.00    +0.000 A 
ATOM     39  C19 UNL     1      55.636  53.495  74.337  0.00  0.00    +0.000 A 
ATOM     40  H12 UNL     1      54.749  56.565  74.927  0.00  0.00    +0.000 HD
ENDBRANCH  30  31
ENDBRANCH  14  30
TORSDOF 3
ENDMDL
MODEL 3
REMARK VINA RESULT:    -8.766      3.011      7.841
REMARK INTER + INTRA:         -11.734
REMARK INTER:                 -10.303
REMARK INTRA:                  -1.431
REMARK UNBOUND:                -1.430
REMARK  Name = CNP0156845_1.pdb
REMARK  4 active torsions:
REMARK  status: ('A' for Active; 'I' for Inactive)
REMARK    1  A    between atoms: C1_1  and  C2_2
REMARK    2  A    between atoms: C10_14  and  C11_15
REMARK    3  A    between atoms: C11_15  and  C12_16
REMARK    4  A    between atoms: N4_28  and  C22_29
REMARK                            x       y       z     vdW  Elec       q    Type
REMARK                         _______ _______ _______ _____ _____    ______ ____
ROOT
ATOM      1  C1  UNL     1      63.933  57.591  72.897  0.00  0.00    +0.000 C 
ATOM      2  C2  UNL     1      62.850  56.798  72.226  0.00  0.00    +0.000 A 
ATOM      3  C3  UNL     1      62.753  55.403  72.403  0.00  0.00    +0.000 A 
ATOM      4  C4  UNL     1      61.728  54.672  71.774  0.00  0.00    +0.000 A 
ATOM      5 CL1  UNL     1      61.608  52.940  72.022  0.00  0.00    +0.000 Cl
ATOM      6  C5  UNL     1      60.791  55.324  70.958  0.00  0.00    +0.000 A 
ATOM      7  C6  UNL     1      60.886  56.710  70.793  0.00  0.00    +0.000 A 
ATOM      8  C7  UNL     1      61.895  57.424  71.413  0.00  0.00    +0.000 A 
ATOM      9  N1  UNL     1      61.812  58.810  71.128  0.00  0.00    +0.000 N 
ATOM     10  C8  UNL     1      60.679  58.951  70.282  0.00  0.00    +0.000 C 
ATOM     11  O1  UNL     1      60.310  60.064  69.822  0.00  0.00    +0.000 OA
ATOM     12  C9  UNL     1      59.984  57.636  69.997  0.00  0.00    +0.000 C 
ATOM     13  N2  UNL     1      60.036  57.290  68.572  0.00  0.00    +0.000 NA
ATOM     14  C10 UNL     1      58.848  56.462  68.315  0.00  0.00    +0.000 C 
ATOM     15  C20 UNL     1      57.768  56.873  69.329  0.00  0.00    +0.000 C 
ATOM     16  C21 UNL     1      57.176  55.706  70.060  0.00  0.00    +0.000 C 
ATOM     17  O2  UNL     1      56.496  54.804  69.501  0.00  0.00    +0.000 OA
ATOM     18  N4  UNL     1      57.414  55.742  71.459  0.00  0.00    +0.000 N 
ATOM     19  C28 UNL     1      58.174  56.919  71.686  0.00  0.00    +0.000 C 
ATOM     20  O3  UNL     1      58.569  57.278  72.827  0.00  0.00    +0.000 OA
ATOM     21  C29 UNL     1      58.498  57.661  70.423  0.00  0.00    +0.000 C 
ATOM     22  H6  UNL     1      62.442  59.571  71.465  0.00  0.00    +0.000 HD
ATOM     23  H7  UNL     1      59.948  58.173  68.016  0.00  0.00    +0.000 HD
ENDROOT
BRANCH  18  24
ATOM     24  C22 UNL     1      57.256  54.655  72.388  0.00  0.00    +0.000 A 
ATOM     25  C23 UNL     1      56.232  54.682  73.351  0.00  0.00    +0.000 A 
ATOM     26  C24 UNL     1      56.067  53.612  74.234  0.00  0.00    +0.000 A 
ATOM     27  C25 UNL     1      56.921  52.507  74.164  0.00  0.00    +0.000 A 
ATOM     28  C26 UNL     1      57.940  52.472  73.208  0.00  0.00    +0.000 A 
ATOM     29  C27 UNL     1      58.107  53.540  72.321  0.00  0.00    +0.000 A 
ENDBRANCH  18  24
BRANCH  14  30
ATOM     30  C11 UNL     1      58.350  56.593  66.862  0.00  0.00    +0.000 C 
BRANCH  30  31
ATOM     31  C12 UNL     1      58.269  55.252  66.193  0.00  0.00    +0.000 A 
ATOM     32  C13 UNL     1      58.407  54.014  66.816  0.00  0.00    +0.000 A 
ATOM     33  N3  UNL     1      58.359  53.018  65.902  0.00  0.00    +0.000 N 
ATOM     34  C14 UNL     1      58.203  53.616  64.708  0.00  0.00    +0.000 A 
ATOM     35  C15 UNL     1      58.118  53.000  63.460  0.00  0.00    +0.000 A 
ATOM     36  C16 UNL     1      57.971  53.822  62.329  0.00  0.00    +0.000 A 
ATOM     37  C17 UNL     1      57.914  55.226  62.468  0.00  0.00    +0.000 A 
ATOM     38  C18 UNL     1      58.003  55.822  63.739  0.00  0.00    +0.000 A 
ATOM     39  C19 UNL     1      58.148  54.980  64.844  0.00  0.00    +0.000 A 
ATOM     40  H12 UNL     1      58.442  51.994  66.090  0.00  0.00    +0.000 HD
ENDBRANCH  30  31
ENDBRANCH  14  30
TORSDOF 3
ENDMDL
MODEL 4
REMARK VINA RESULT:    -8.595      3.515      6.435
REMARK INTER + INTRA:         -11.532
REMARK INTER:                  -9.962
REMARK INTRA:                  -1.570
REMARK UNBOUND:                -1.430
REMARK  Name = CNP0156845_1.pdb
REMARK  4 active torsions:
REMARK  status: ('A' for Active; 'I' for Inactive)
REMARK    1  A    between atoms: C1_1  and  C2_2
REMARK    2  A    between atoms: C10_14  and  C11_15
REMARK    3  A    between atoms: C11_15  and  C12_16
REMARK    4  A    between atoms: N4_28  and  C22_29
REMARK                            x       y       z     vdW  Elec       q    Type
REMARK                         _______ _______ _______ _____ _____    ______ ____
ROOT
ATOM      1  C1  UNL     1      57.197  49.648  71.355  0.00  0.00    +0.000 C 
ATOM      2  C2  UNL     1      57.917  50.891  70.923  0.00  0.00    +0.000 A 
ATOM      3  C3  UNL     1      58.995  50.829  70.016  0.00  0.00    +0.000 A 
ATOM      4  C4  UNL     1      59.658  52.004  69.613  0.00  0.00    +0.000 A 
ATOM      5 CL1  UNL     1      60.984  51.913  68.469  0.00  0.00    +0.000 Cl
ATOM      6  C5  UNL     1      59.256  53.251  70.113  0.00  0.00    +0.000 A 
ATOM      7  C6  UNL     1      58.179  53.308  71.005  0.00  0.00    +0.000 A 
ATOM      8  C7  UNL     1      57.530  52.151  71.398  0.00  0.00    +0.000 A 
ATOM      9  N1  UNL     1      56.466  52.421  72.294  0.00  0.00    +0.000 N 
ATOM     10  C8  UNL     1      56.464  53.834  72.456  0.00  0.00    +0.000 C 
ATOM     11  O1  UNL     1      55.643  54.428  73.204  0.00  0.00    +0.000 OA
ATOM     12  C9  UNL     1      57.543  54.525  71.651  0.00  0.00    +0.000 C 
ATOM     13  N2  UNL     1      58.515  55.206  72.513  0.00  0.00    +0.000 NA
ATOM     14  C10 UNL     1      59.046  56.323  71.718  0.00  0.00    +0.000 C 
ATOM     15  C20 UNL     1      57.958  56.737  70.714  0.00  0.00    +0.000 C 
ATOM     16  C21 UNL     1      58.462  56.821  69.305  0.00  0.00    +0.000 C 
ATOM     17  O2  UNL     1      59.322  57.658  68.920  0.00  0.00    +0.000 OA
ATOM     18  N4  UNL     1      57.836  55.894  68.430  0.00  0.00    +0.000 N 
ATOM     19  C28 UNL     1      56.917  55.171  69.235  0.00  0.00    +0.000 C 
ATOM     20  O3  UNL     1      56.177  54.256  68.787  0.00  0.00    +0.000 OA
ATOM     21  C29 UNL     1      56.957  55.576  70.679  0.00  0.00    +0.000 C 
ATOM     22  H6  UNL     1      55.817  51.737  72.742  0.00  0.00    +0.000 HD
ATOM     23  H7  UNL     1      58.003  55.602  73.337  0.00  0.00    +0.000 HD
ENDROOT
BRANCH  18  24
ATOM     24  C22 UNL     1      58.286  55.508  67.120  0.00  0.00    +0.000 A 
ATOM     25  C23 UNL     1      59.310  54.557  66.968  0.00  0.00    +0.000 A 
ATOM     26  C24 UNL     1      59.725  54.167  65.691  0.00  0.00    +0.000 A 
ATOM     27  C25 UNL     1      59.123  54.722  64.559  0.00  0.00    +0.000 A 
ATOM     28  C26 UNL     1      58.104  55.667  64.701  0.00  0.00    +0.000 A 
ATOM     29  C27 UNL     1      57.684  56.058  65.976  0.00  0.00    +0.000 A 
ENDBRANCH  18  24
BRANCH  14  30
ATOM     30  C11 UNL     1      59.491  57.507  72.601  0.00  0.00    +0.000 C 
BRANCH  30  31
ATOM     31  C12 UNL     1      60.956  57.787  72.433  0.00  0.00    +0.000 A 
ATOM     32  C13 UNL     1      61.513  58.880  71.775  0.00  0.00    +0.000 A 
ATOM     33  N3  UNL     1      62.861  58.775  71.743  0.00  0.00    +0.000 N 
ATOM     34  C14 UNL     1      63.159  57.621  72.365  0.00  0.00    +0.000 A 
ATOM     35  C15 UNL     1      64.425  57.074  72.567  0.00  0.00    +0.000 A 
ATOM     36  C16 UNL     1      64.509  55.838  73.234  0.00  0.00    +0.000 A 
ATOM     37  C17 UNL     1      63.340  55.185  73.680  0.00  0.00    +0.000 A 
ATOM     38  C18 UNL     1      62.074  55.760  73.463  0.00  0.00    +0.000 A 
ATOM     39  C19 UNL     1      62.022  56.987  72.799  0.00  0.00    +0.000 A 
ATOM     40  H12 UNL     1      63.530  59.449  71.308  0.00  0.00    +0.000 HD
ENDBRANCH  30  31
ENDBRANCH  14  30
TORSDOF 3
ENDMDL
MODEL 5
REMARK VINA RESULT:    -8.463      3.134      4.501
REMARK INTER + INTRA:         -11.378
REMARK INTER:                 -10.005
REMARK INTRA:                  -1.372
REMARK UNBOUND:                -1.430
REMARK  Name = CNP0156845_1.pdb
REMARK  4 active torsions:
REMARK  status: ('A' for Active; 'I' for Inactive)
REMARK    1  A    between atoms: C1_1  and  C2_2
REMARK    2  A    between atoms: C10_14  and  C11_15
REMARK    3  A    between atoms: C11_15  and  C12_16
REMARK    4  A    between atoms: N4_28  and  C22_29
REMARK                            x       y       z     vdW  Elec       q    Type
REMARK                         _______ _______ _______ _____ _____    ______ ____
ROOT
ATOM      1  C1  UNL     1      61.282  59.362  72.049  0.00  0.00    +0.000 C 
ATOM      2  C2  UNL     1      60.957  57.945  72.419  0.00  0.00    +0.000 A 
ATOM      3  C3  UNL     1      59.624  57.487  72.443  0.00  0.00    +0.000 A 
ATOM      4  C4  UNL     1      59.332  56.154  72.785  0.00  0.00    +0.000 A 
ATOM      5 CL1  UNL     1      57.670  55.593  72.791  0.00  0.00    +0.000 Cl
ATOM      6  C5  UNL     1      60.366  55.263  73.111  0.00  0.00    +0.000 A 
ATOM      7  C6  UNL     1      61.689  55.720  73.075  0.00  0.00    +0.000 A 
ATOM      8  C7  UNL     1      61.971  57.031  72.739  0.00  0.00    +0.000 A 
ATOM      9  N1  UNL     1      63.363  57.292  72.753  0.00  0.00    +0.000 N 
ATOM     10  C8  UNL     1      63.970  56.060  73.119  0.00  0.00    +0.000 C 
ATOM     11  O1  UNL     1      65.218  55.929  73.239  0.00  0.00    +0.000 OA
ATOM     12  C9  UNL     1      62.967  54.950  73.351  0.00  0.00    +0.000 C 
ATOM     13  N2  UNL     1      62.986  54.481  74.740  0.00  0.00    +0.000 NA
ATOM     14  C10 UNL     1      62.548  53.078  74.697  0.00  0.00    +0.000 C 
ATOM     15  C20 UNL     1      62.933  52.513  73.320  0.00  0.00    +0.000 C 
ATOM     16  C21 UNL     1      61.792  51.834  72.624  0.00  0.00    +0.000 C 
ATOM     17  O2  UNL     1      61.242  50.783  73.049  0.00  0.00    +0.000 OA
ATOM     18  N4  UNL     1      61.421  52.466  71.408  0.00  0.00    +0.000 N 
ATOM     19  C28 UNL     1      62.294  53.578  71.275  0.00  0.00    +0.000 C 
ATOM     20  O3  UNL     1      62.255  54.375  70.301  0.00  0.00    +0.000 OA
ATOM     21  C29 UNL     1      63.231  53.731  72.437  0.00  0.00    +0.000 C 
ATOM     22  H6  UNL     1      63.848  58.192  72.539  0.00  0.00    +0.000 HD
ATOM     23  H7  UNL     1      63.975  54.507  75.083  0.00  0.00    +0.000 HD
ENDROOT
BRANCH  18  24
ATOM     24  C22 UNL     1      60.205  52.263  70.668  0.00  0.00    +0.000 A 
ATOM     25  C23 UNL     1      60.231  51.637  69.410  0.00  0.00    +0.000 A 
ATOM     26  C24 UNL     1      59.043  51.419  68.707  0.00  0.00    +0.000 A 
ATOM     27  C25 UNL     1      57.821  51.824  69.252  0.00  0.00    +0.000 A 
ATOM     28  C26 UNL     1      57.787  52.446  70.503  0.00  0.00    +0.000 A 
ATOM     29  C27 UNL     1      58.973  52.664  71.211  0.00  0.00    +0.000 A 
ENDBRANCH  18  24
BRANCH  14  30
ATOM     30  C11 UNL     1      63.151  52.244  75.847  0.00  0.00    +0.000 C 
BRANCH  30  31
ATOM     31  C12 UNL     1      62.768  52.809  77.184  0.00  0.00    +0.000 A 
ATOM     32  C13 UNL     1      63.606  52.951  78.286  0.00  0.00    +0.000 A 
ATOM     33  N3  UNL     1      62.913  53.419  79.349  0.00  0.00    +0.000 N 
ATOM     34  C14 UNL     1      61.643  53.563  78.931  0.00  0.00    +0.000 A 
ATOM     35  C15 UNL     1      60.553  54.004  79.680  0.00  0.00    +0.000 A 
ATOM     36  C16 UNL     1      59.300  54.065  79.044  0.00  0.00    +0.000 A 
ATOM     37  C17 UNL     1      59.166  53.689  77.690  0.00  0.00    +0.000 A 
ATOM     38  C18 UNL     1      60.283  53.247  76.958  0.00  0.00    +0.000 A 
ATOM     39  C19 UNL     1      61.514  53.198  77.615  0.00  0.00    +0.000 A 
ATOM     40  H12 UNL     1      63.289  53.613  80.304  0.00  0.00    +0.000 HD
ENDBRANCH  30  31
ENDBRANCH  14  30
TORSDOF 3
ENDMDL
MODEL 6
REMARK VINA RESULT:    -8.108      2.213      7.132
REMARK INTER + INTRA:         -10.960
REMARK INTER:                  -9.499
REMARK INTRA:                  -1.461
REMARK UNBOUND:                -1.430
REMARK  Name = CNP0156845_1.pdb
REMARK  4 active torsions:
REMARK  status: ('A' for Active; 'I' for Inactive)
REMARK    1  A    between atoms: C1_1  and  C2_2
REMARK    2  A    between atoms: C10_14  and  C11_15
REMARK    3  A    between atoms: C11_15  and  C12_16
REMARK    4  A    between atoms: N4_28  and  C22_29
REMARK                            x       y       z     vdW  Elec       q    Type
REMARK                         _______ _______ _______ _____ _____    ______ ____
ROOT
ATOM      1  C1  UNL     1      56.056  56.152  74.744  0.00  0.00    +0.000 C 
ATOM      2  C2  UNL     1      57.122  55.986  73.701  0.00  0.00    +0.000 A 
ATOM      3  C3  UNL     1      57.801  57.101  73.171  0.00  0.00    +0.000 A 
ATOM      4  C4  UNL     1      58.804  56.932  72.198  0.00  0.00    +0.000 A 
ATOM      5 CL1  UNL     1      59.655  58.328  71.563  0.00  0.00    +0.000 Cl
ATOM      6  C5  UNL     1      59.137  55.648  71.740  0.00  0.00    +0.000 A 
ATOM      7  C6  UNL     1      58.466  54.543  72.276  0.00  0.00    +0.000 A 
ATOM      8  C7  UNL     1      57.482  54.714  73.232  0.00  0.00    +0.000 A 
ATOM      9  N1  UNL     1      56.933  53.478  73.652  0.00  0.00    +0.000 N 
ATOM     10  C8  UNL     1      57.629  52.487  72.906  0.00  0.00    +0.000 C 
ATOM     11  O1  UNL     1      57.385  51.257  73.021  0.00  0.00    +0.000 OA
ATOM     12  C9  UNL     1      58.668  53.070  71.972  0.00  0.00    +0.000 C 
ATOM     13  N2  UNL     1      58.350  52.797  70.565  0.00  0.00    +0.000 NA
ATOM     14  C10 UNL     1      59.640  52.774  69.859  0.00  0.00    +0.000 C 
ATOM     15  C20 UNL     1      60.715  52.340  70.869  0.00  0.00    +0.000 C 
ATOM     16  C21 UNL     1      61.897  53.261  70.898  0.00  0.00    +0.000 C 
ATOM     17  O2  UNL     1      62.684  53.418  69.926  0.00  0.00    +0.000 OA
ATOM     18  N4  UNL     1      62.074  53.905  72.151  0.00  0.00    +0.000 N 
ATOM     19  C28 UNL     1      61.014  53.439  72.972  0.00  0.00    +0.000 C 
ATOM     20  O3  UNL     1      60.854  53.802  74.167  0.00  0.00    +0.000 OA
ATOM     21  C29 UNL     1      60.081  52.509  72.254  0.00  0.00    +0.000 C 
ATOM     22  H6  UNL     1      56.181  53.318  74.358  0.00  0.00    +0.000 HD
ATOM     23  H7  UNL     1      57.924  51.842  70.504  0.00  0.00    +0.000 HD
ENDROOT
BRANCH  18  24
ATOM     24  C22 UNL     1      62.901  55.050  72.421  0.00  0.00    +0.000 A 
ATOM     25  C23 UNL     1      63.991  54.951  73.303  0.00  0.00    +0.000 A 
ATOM     26  C24 UNL     1      64.807  56.061  73.542  0.00  0.00    +0.000 A 
ATOM     27  C25 UNL     1      64.542  57.276  72.905  0.00  0.00    +0.000 A 
ATOM     28  C26 UNL     1      63.462  57.382  72.025  0.00  0.00    +0.000 A 
ATOM     29  C27 UNL     1      62.644  56.274  71.781  0.00  0.00    +0.000 A 
ENDBRANCH  18  24
BRANCH  14  30
ATOM     30  C11 UNL     1      59.609  51.852  68.622  0.00  0.00    +0.000 C 
BRANCH  30  31
ATOM     31  C12 UNL     1      59.814  52.635  67.358  0.00  0.00    +0.000 A 
ATOM     32  C13 UNL     1      60.802  52.408  66.403  0.00  0.00    +0.000 A 
ATOM     33  N3  UNL     1      60.745  53.350  65.433  0.00  0.00    +0.000 N 
ATOM     34  C14 UNL     1      59.739  54.175  65.775  0.00  0.00    +0.000 A 
ATOM     35  C15 UNL     1      59.309  55.310  65.089  0.00  0.00    +0.000 A 
ATOM     36  C16 UNL     1      58.240  56.043  65.634  0.00  0.00    +0.000 A 
ATOM     37  C17 UNL     1      57.632  55.630  66.840  0.00  0.00    +0.000 A 
ATOM     38  C18 UNL     1      58.086  54.481  67.512  0.00  0.00    +0.000 A 
ATOM     39  C19 UNL     1      59.148  53.773  66.946  0.00  0.00    +0.000 A 
ATOM     40  H12 UNL     1      61.369  53.427  64.600  0.00  0.00    +0.000 HD
ENDBRANCH  30  31
ENDBRANCH  14  30
TORSDOF 3
ENDMDL
MODEL 7
REMARK VINA RESULT:    -8.030      2.841      7.022
REMARK INTER + INTRA:         -10.868
REMARK INTER:                  -9.407
REMARK INTRA:                  -1.461
REMARK UNBOUND:                -1.430
REMARK  Name = CNP0156845_1.pdb
REMARK  4 active torsions:
REMARK  status: ('A' for Active; 'I' for Inactive)
REMARK    1  A    between atoms: C1_1  and  C2_2
REMARK    2  A    between atoms: C10_14  and  C11_15
REMARK    3  A    between atoms: C11_15  and  C12_16
REMARK    4  A    between atoms: N4_28  and  C22_29
REMARK                            x       y       z     vdW  Elec       q    Type
REMARK                         _______ _______ _______ _____ _____    ______ ____
ROOT
ATOM      1  C1  UNL     1      59.619  60.475  68.684  0.00  0.00    +0.000 C 
ATOM      2  C2  UNL     1      59.891  59.120  69.268  0.00  0.00    +0.000 A 
ATOM      3  C3  UNL     1      60.188  58.965  70.637  0.00  0.00    +0.000 A 
ATOM      4  C4  UNL     1      60.435  57.688  71.174  0.00  0.00    +0.000 A 
ATOM      5 CL1  UNL     1      60.783  57.508  72.884  0.00  0.00    +0.000 Cl
ATOM      6  C5  UNL     1      60.392  56.552  70.351  0.00  0.00    +0.000 A 
ATOM      7  C6  UNL     1      60.087  56.711  68.995  0.00  0.00    +0.000 A 
ATOM      8  C7  UNL     1      59.846  57.968  68.471  0.00  0.00    +0.000 A 
ATOM      9  N1  UNL     1      59.547  57.915  67.087  0.00  0.00    +0.000 N 
ATOM     10  C8  UNL     1      59.609  56.536  66.744  0.00  0.00    +0.000 C 
ATOM     11  O1  UNL     1      59.404  56.119  65.573  0.00  0.00    +0.000 OA
ATOM     12  C9  UNL     1      59.950  55.647  67.921  0.00  0.00    +0.000 C 
ATOM     13  N2  UNL     1      61.229  54.955  67.729  0.00  0.00    +0.000 NA
ATOM     14  C10 UNL     1      61.133  53.708  68.503  0.00  0.00    +0.000 C 
ATOM     15  C20 UNL     1      59.648  53.317  68.570  0.00  0.00    +0.000 C 
ATOM     16  C21 UNL     1      59.180  53.030  69.965  0.00  0.00    +0.000 C 
ATOM     17  O2  UNL     1      59.602  52.066  70.658  0.00  0.00    +0.000 OA
ATOM     18  N4  UNL     1      58.173  53.925  70.413  0.00  0.00    +0.000 N 
ATOM     19  C28 UNL     1      57.959  54.827  69.338  0.00  0.00    +0.000 C 
ATOM     20  O3  UNL     1      57.123  55.768  69.380  0.00  0.00    +0.000 OA
ATOM     21  C29 UNL     1      58.865  54.573  68.170  0.00  0.00    +0.000 C 
ATOM     22  H6  UNL     1      59.327  58.711  66.449  0.00  0.00    +0.000 HD
ATOM     23  H7  UNL     1      61.320  54.708  66.715  0.00  0.00    +0.000 HD
ENDROOT
BRANCH  18  24
ATOM     24  C22 UNL     1      57.735  54.119  71.768  0.00  0.00    +0.000 A 
ATOM     25  C23 UNL     1      58.576  54.737  72.710  0.00  0.00    +0.000 A 
ATOM     26  C24 UNL     1      58.135  54.946  74.020  0.00  0.00    +0.000 A 
ATOM     27  C25 UNL     1      56.853  54.540  74.400  0.00  0.00    +0.000 A 
ATOM     28  C26 UNL     1      56.009  53.927  73.471  0.00  0.00    +0.000 A 
ATOM     29  C27 UNL     1      56.446  53.718  72.158  0.00  0.00    +0.000 A 
ENDBRANCH  18  24
BRANCH  14  30
ATOM     30  C11 UNL     1      61.996  52.581  67.900  0.00  0.00    +0.000 C 
BRANCH  30  31
ATOM     31  C12 UNL     1      62.808  51.895  68.959  0.00  0.00    +0.000 A 
ATOM     32  C13 UNL     1      63.345  50.613  68.882  0.00  0.00    +0.000 A 
ATOM     33  N3  UNL     1      63.950  50.283  70.046  0.00  0.00    +0.000 N 
ATOM     34  C14 UNL     1      63.790  51.341  70.860  0.00  0.00    +0.000 A 
ATOM     35  C15 UNL     1      64.231  51.466  72.177  0.00  0.00    +0.000 A 
ATOM     36  C16 UNL     1      63.941  52.662  72.858  0.00  0.00    +0.000 A 
ATOM     37  C17 UNL     1      63.225  53.695  72.214  0.00  0.00    +0.000 A 
ATOM     38  C18 UNL     1      62.793  53.543  70.884  0.00  0.00    +0.000 A 
ATOM     39  C19 UNL     1      63.095  52.345  70.234  0.00  0.00    +0.000 A 
ATOM     40  H12 UNL     1      64.428  49.382  70.268  0.00  0.00    +0.000 HD
ENDBRANCH  30  31
ENDBRANCH  14  30
TORSDOF 3
ENDMDL
MODEL 8
REMARK VINA RESULT:    -7.967      3.556      7.424
REMARK INTER + INTRA:         -10.794
REMARK INTER:                  -9.684
REMARK INTRA:                  -1.110
REMARK UNBOUND:                -1.430
REMARK  Name = CNP0156845_1.pdb
REMARK  4 active torsions:
REMARK  status: ('A' for Active; 'I' for Inactive)
REMARK    1  A    between atoms: C1_1  and  C2_2
REMARK    2  A    between atoms: C10_14  and  C11_15
REMARK    3  A    between atoms: C11_15  and  C12_16
REMARK    4  A    between atoms: N4_28  and  C22_29
REMARK                            x       y       z     vdW  Elec       q    Type
REMARK                         _______ _______ _______ _____ _____    ______ ____
ROOT
ATOM      1  C1  UNL     1      60.525  49.094  72.752  0.00  0.00    +0.000 C 
ATOM      2  C2  UNL     1      60.368  50.584  72.684  0.00  0.00    +0.000 A 
ATOM      3  C3  UNL     1      60.497  51.382  73.839  0.00  0.00    +0.000 A 
ATOM      4  C4  UNL     1      60.354  52.780  73.761  0.00  0.00    +0.000 A 
ATOM      5 CL1  UNL     1      60.537  53.762  75.203  0.00  0.00    +0.000 Cl
ATOM      6  C5  UNL     1      60.077  53.397  72.532  0.00  0.00    +0.000 A 
ATOM      7  C6  UNL     1      59.960  52.601  71.387  0.00  0.00    +0.000 A 
ATOM      8  C7  UNL     1      60.101  51.228  71.468  0.00  0.00    +0.000 A 
ATOM      9  N1  UNL     1      59.957  50.607  70.203  0.00  0.00    +0.000 N 
ATOM     10  C8  UNL     1      59.714  51.669  69.290  0.00  0.00    +0.000 C 
ATOM     11  O1  UNL     1      59.526  51.476  68.060  0.00  0.00    +0.000 OA
ATOM     12  C9  UNL     1      59.700  53.030  69.955  0.00  0.00    +0.000 C 
ATOM     13  N2  UNL     1      58.386  53.674  69.850  0.00  0.00    +0.000 NA
ATOM     14  C10 UNL     1      58.643  55.121  69.882  0.00  0.00    +0.000 C 
ATOM     15  C20 UNL     1      60.053  55.355  69.313  0.00  0.00    +0.000 C 
ATOM     16  C21 UNL     1      60.909  56.207  70.200  0.00  0.00    +0.000 C 
ATOM     17  O2  UNL     1      60.665  57.418  70.451  0.00  0.00    +0.000 OA
ATOM     18  N4  UNL     1      62.054  55.529  70.694  0.00  0.00    +0.000 N 
ATOM     19  C28 UNL     1      61.979  54.216  70.158  0.00  0.00    +0.000 C 
ATOM     20  O3  UNL     1      62.841  53.326  70.386  0.00  0.00    +0.000 OA
ATOM     21  C29 UNL     1      60.745  53.987  69.336  0.00  0.00    +0.000 C 
ATOM     22  H6  UNL     1      60.016  49.589  69.979  0.00  0.00    +0.000 HD
ATOM     23  H7  UNL     1      57.975  53.432  68.917  0.00  0.00    +0.000 HD
ENDROOT
BRANCH  18  24
ATOM     24  C22 UNL     1      62.897  55.942  71.783  0.00  0.00    +0.000 A 
ATOM     25  C23 UNL     1      63.202  55.052  72.828  0.00  0.00    +0.000 A 
ATOM     26  C24 UNL     1      64.043  55.452  73.870  0.00  0.00    +0.000 A 
ATOM     27  C25 UNL     1      64.585  56.740  73.879  0.00  0.00    +0.000 A 
ATOM     28  C26 UNL     1      64.289  57.630  72.844  0.00  0.00    +0.000 A 
ATOM     29  C27 UNL     1      63.449  57.233  71.798  0.00  0.00    +0.000 A 
ENDBRANCH  18  24
BRANCH  14  30
ATOM     30  C11 UNL     1      57.574  55.919  69.108  0.00  0.00    +0.000 C 
BRANCH  30  31
ATOM     31  C12 UNL     1      57.999  56.159  67.688  0.00  0.00    +0.000 A 
ATOM     32  C13 UNL     1      58.483  57.355  67.166  0.00  0.00    +0.000 A 
ATOM     33  N3  UNL     1      58.692  57.239  65.835  0.00  0.00    +0.000 N 
ATOM     34  C14 UNL     1      58.334  55.984  65.511  0.00  0.00    +0.000 A 
ATOM     35  C15 UNL     1      58.358  55.400  64.245  0.00  0.00    +0.000 A 
ATOM     36  C16 UNL     1      57.921  54.069  64.126  0.00  0.00    +0.000 A 
ATOM     37  C17 UNL     1      57.476  53.358  65.262  0.00  0.00    +0.000 A 
ATOM     38  C18 UNL     1      57.462  53.971  66.528  0.00  0.00    +0.000 A 
ATOM     39  C19 UNL     1      57.902  55.294  66.615  0.00  0.00    +0.000 A 
ATOM     40  H12 UNL     1      59.046  57.981  65.191  0.00  0.00    +0.000 HD
ENDBRANCH  30  31
ENDBRANCH  14  30
TORSDOF 3
ENDMDL
MODEL 9
REMARK VINA RESULT:    -7.803      2.693      5.563
REMARK INTER + INTRA:         -10.602
REMARK INTER:                  -8.947
REMARK INTRA:                  -1.655
REMARK UNBOUND:                -1.430
REMARK  Name = CNP0156845_1.pdb
REMARK  4 active torsions:
REMARK  status: ('A' for Active; 'I' for Inactive)
REMARK    1  A    between atoms: C1_1  and  C2_2
REMARK    2  A    between atoms: C10_14  and  C11_15
REMARK    3  A    between atoms: C11_15  and  C12_16
REMARK    4  A    between atoms: N4_28  and  C22_29
REMARK                            x       y       z     vdW  Elec       q    Type
REMARK                         _______ _______ _______ _____ _____    ______ ____
ROOT
ATOM      1  C1  UNL     1      61.061  52.906  66.201  0.00  0.00    +0.000 C 
ATOM      2  C2  UNL     1      60.844  53.302  67.632  0.00  0.00    +0.000 A 
ATOM      3  C3  UNL     1      61.534  52.655  68.677  0.00  0.00    +0.000 A 
ATOM      4  C4  UNL     1      61.327  53.040  70.015  0.00  0.00    +0.000 A 
ATOM      5 CL1  UNL     1      62.207  52.241  71.304  0.00  0.00    +0.000 Cl
ATOM      6  C5  UNL     1      60.426  54.071  70.325  0.00  0.00    +0.000 A 
ATOM      7  C6  UNL     1      59.752  54.715  69.282  0.00  0.00    +0.000 A 
ATOM      8  C7  UNL     1      59.958  54.334  67.969  0.00  0.00    +0.000 A 
ATOM      9  N1  UNL     1      59.192  55.112  67.066  0.00  0.00    +0.000 N 
ATOM     10  C8  UNL     1      58.472  56.028  67.881  0.00  0.00    +0.000 C 
ATOM     11  O1  UNL     1      57.673  56.876  67.403  0.00  0.00    +0.000 OA
ATOM     12  C9  UNL     1      58.765  55.866  69.357  0.00  0.00    +0.000 C 
ATOM     13  N2  UNL     1      57.572  55.461  70.108  0.00  0.00    +0.000 NA
ATOM     14  C10 UNL     1      57.760  55.976  71.473  0.00  0.00    +0.000 C 
ATOM     15  C20 UNL     1      58.654  57.224  71.379  0.00  0.00    +0.000 C 
ATOM     16  C21 UNL     1      59.820  57.182  72.319  0.00  0.00    +0.000 C 
ATOM     17  O2  UNL     1      59.705  57.195  73.574  0.00  0.00    +0.000 OA
ATOM     18  N4  UNL     1      61.075  57.175  71.656  0.00  0.00    +0.000 N 
ATOM     19  C28 UNL     1      60.773  57.201  70.269  0.00  0.00    +0.000 C 
ATOM     20  O3  UNL     1      61.654  57.205  69.369  0.00  0.00    +0.000 OA
ATOM     21  C29 UNL     1      59.299  57.173  69.989  0.00  0.00    +0.000 C 
ATOM     22  H6  UNL     1      59.158  55.036  66.026  0.00  0.00    +0.000 HD
ATOM     23  H7  UNL     1      56.740  55.940  69.687  0.00  0.00    +0.000 HD
ENDROOT
BRANCH  18  24
ATOM     24  C22 UNL     1      62.350  56.839  72.228  0.00  0.00    +0.000 A 
ATOM     25  C23 UNL     1      63.310  57.837  72.471  0.00  0.00    +0.000 A 
ATOM     26  C24 UNL     1      64.538  57.508  73.051  0.00  0.00    +0.000 A 
ATOM     27  C25 UNL     1      64.818  56.182  73.394  0.00  0.00    +0.000 A 
ATOM     28  C26 UNL     1      63.869  55.184  73.158  0.00  0.00    +0.000 A 
ATOM     29  C27 UNL     1      62.639  55.510  72.579  0.00  0.00    +0.000 A 
ENDBRANCH  18  24
BRANCH  14  30
ATOM     30  C11 UNL     1      56.419  56.282  72.170  0.00  0.00    +0.000 C 
BRANCH  30  31
ATOM     31  C12 UNL     1      56.275  55.492  73.438  0.00  0.00    +0.000 A 
ATOM     32  C13 UNL     1      56.446  55.977  74.732  0.00  0.00    +0.000 A 
ATOM     33  N3  UNL     1      56.320  54.975  75.632  0.00  0.00    +0.000 N 
ATOM     34  C14 UNL     1      56.082  53.861  74.917  0.00  0.00    +0.000 A 
ATOM     35  C15 UNL     1      55.897  52.568  75.405  0.00  0.00    +0.000 A 
ATOM     36  C16 UNL     1      55.675  51.538  74.473  0.00  0.00    +0.000 A 
ATOM     37  C17 UNL     1      55.643  51.820  73.090  0.00  0.00    +0.000 A 
ATOM     38  C18 UNL     1      55.832  53.134  72.624  0.00  0.00    +0.000 A 
ATOM     39  C19 UNL     1      56.050  54.135  73.573  0.00  0.00    +0.000 A 
ATOM     40  H12 UNL     1      56.406  55.052  76.669  0.00  0.00    +0.000 HD
ENDBRANCH  30  31
ENDBRANCH  14  30
TORSDOF 3
ENDMDL
MODEL 10
REMARK VINA RESULT:    -7.743      2.503      3.729
REMARK INTER + INTRA:         -10.531
REMARK INTER:                  -8.933
REMARK INTRA:                  -1.598
REMARK UNBOUND:                -1.430
REMARK  Name = CNP0156845_1.pdb
REMARK  4 active torsions:
REMARK  status: ('A' for Active; 'I' for Inactive)
REMARK    1  A    between atoms: C1_1  and  C2_2
REMARK    2  A    between atoms: C10_14  and  C11_15
REMARK    3  A    between atoms: C11_15  and  C12_16
REMARK    4  A    between atoms: N4_28  and  C22_29
REMARK                            x       y       z     vdW  Elec       q    Type
REMARK                         _______ _______ _______ _____ _____    ______ ____
ROOT
ATOM      1  C1  UNL     1      63.677  52.000  71.277  0.00  0.00    +0.000 C 
ATOM      2  C2  UNL     1      62.804  53.086  71.836  0.00  0.00    +0.000 A 
ATOM      3  C3  UNL     1      63.331  54.354  72.149  0.00  0.00    +0.000 A 
ATOM      4  C4  UNL     1      62.501  55.366  72.665  0.00  0.00    +0.000 A 
ATOM      5 CL1  UNL     1      63.168  56.947  73.031  0.00  0.00    +0.000 Cl
ATOM      6  C5  UNL     1      61.136  55.122  72.879  0.00  0.00    +0.000 A 
ATOM      7  C6  UNL     1      60.615  53.864  72.557  0.00  0.00    +0.000 A 
ATOM      8  C7  UNL     1      61.435  52.873  72.050  0.00  0.00    +0.000 A 
ATOM      9  N1  UNL     1      60.718  51.680  71.782  0.00  0.00    +0.000 N 
ATOM     10  C8  UNL     1      59.373  51.963  72.147  0.00  0.00    +0.000 C 
ATOM     11  O1  UNL     1      58.451  51.110  72.048  0.00  0.00    +0.000 OA
ATOM     12  C9  UNL     1      59.183  53.372  72.665  0.00  0.00    +0.000 C 
ATOM     13  N2  UNL     1      58.749  53.384  74.067  0.00  0.00    +0.000 NA
ATOM     14  C10 UNL     1      57.981  54.626  74.240  0.00  0.00    +0.000 C 
ATOM     15  C20 UNL     1      57.371  54.988  72.876  0.00  0.00    +0.000 C 
ATOM     16  C21 UNL     1      57.641  56.406  72.471  0.00  0.00    +0.000 C 
ATOM     17  O2  UNL     1      57.189  57.407  73.089  0.00  0.00    +0.000 OA
ATOM     18  N4  UNL     1      58.421  56.512  71.289  0.00  0.00    +0.000 N 
ATOM     19  C28 UNL     1      58.692  55.177  70.891  0.00  0.00    +0.000 C 
ATOM     20  O3  UNL     1      59.367  54.884  69.869  0.00  0.00    +0.000 OA
ATOM     21  C29 UNL     1      58.136  54.157  71.840  0.00  0.00    +0.000 C 
ATOM     22  H6  UNL     1      61.089  50.783  71.397  0.00  0.00    +0.000 HD
ATOM     23  H7  UNL     1      58.103  52.573  74.217  0.00  0.00    +0.000 HD
ENDROOT
BRANCH  18  24
ATOM     24  C22 UNL     1      59.101  57.684  70.808  0.00  0.00    +0.000 A 
ATOM     25  C23 UNL     1      60.274  58.137  71.436  0.00  0.00    +0.000 A 
ATOM     26  C24 UNL     1      60.945  59.262  70.949  0.00  0.00    +0.000 A 
ATOM     27  C25 UNL     1      60.451  59.944  69.833  0.00  0.00    +0.000 A 
ATOM     28  C26 UNL     1      59.287  59.499  69.202  0.00  0.00    +0.000 A 
ATOM     29  C27 UNL     1      58.613  58.373  69.685  0.00  0.00    +0.000 A 
ENDBRANCH  18  24
BRANCH  14  30
ATOM     30  C11 UNL     1      56.901  54.494  75.334  0.00  0.00    +0.000 C 
BRANCH  30  31
ATOM     31  C12 UNL     1      55.591  54.052  74.751  0.00  0.00    +0.000 A 
ATOM     32  C13 UNL     1      54.486  54.862  74.503  0.00  0.00    +0.000 A 
ATOM     33  N3  UNL     1      53.449  54.121  74.051  0.00  0.00    +0.000 N 
ATOM     34  C14 UNL     1      53.885  52.850  74.021  0.00  0.00    +0.000 A 
ATOM     35  C15 UNL     1      53.165  51.719  73.638  0.00  0.00    +0.000 A 
ATOM     36  C16 UNL     1      53.815  50.473  73.698  0.00  0.00    +0.000 A 
ATOM     37  C17 UNL     1      55.156  50.386  74.134  0.00  0.00    +0.000 A 
ATOM     38  C18 UNL     1      55.859  51.543  74.515  0.00  0.00    +0.000 A 
ATOM     39  C19 UNL     1      55.188  52.766  74.444  0.00  0.00    +0.000 A 
ATOM     40  H12 UNL     1      52.498  54.469  73.793  0.00  0.00    +0.000 HD
ENDBRANCH  30  31
ENDBRANCH  14  30
TORSDOF 3
ENDMDL
