MODEL 1
REMARK VINA RESULT:    -8.801      0.000      0.000
REMARK INTER + INTRA:         -10.854
REMARK INTER:                  -9.830
REMARK INTRA:                  -1.024
REMARK UNBOUND:                -1.024
REMARK  Name = CNP0054636_2.pdb
REMARK  2 active torsions:
REMARK  status: ('A' for Active; 'I' for Inactive)
REMARK    1  A    between atoms: N1_7  and  C5_8
REMARK    2  A    between atoms: C12_17  and  C13_18
REMARK                            x       y       z     vdW  Elec       q    Type
REMARK                         _______ _______ _______ _____ _____    ______ ____
ROOT
ATOM      1  O1  UNL     1      56.406  55.182  69.688  0.00  0.00    +0.000 OA
ATOM      2  C1  UNL     1      57.396  55.347  70.450  0.00  0.00    +0.000 C 
ATOM      3  C2  UNL     1      58.784  55.642  70.011  0.00  0.00    +0.000 C 
ATOM      4  C3  UNL     1      59.326  56.290  71.237  0.00  0.00    +0.000 C 
ATOM      5  C4  UNL     1      58.712  55.448  72.295  0.00  0.00    +0.000 C 
ATOM      6  O2  UNL     1      59.150  55.311  73.468  0.00  0.00    +0.000 OA
ATOM      7  N1  UNL     1      57.413  55.031  71.850  0.00  0.00    +0.000 N 
ATOM      8  C11 UNL     1      60.757  56.525  70.795  0.00  0.00    +0.000 C 
ATOM      9  O3  UNL     1      60.689  56.842  69.401  0.00  0.00    +0.000 OA
ATOM     10  C12 UNL     1      59.344  56.586  68.972  0.00  0.00    +0.000 C 
ATOM     11  C19 UNL     1      61.426  57.634  71.566  0.00  0.00    +0.000 C 
ATOM     12  O4  UNL     1      61.029  58.829  71.604  0.00  0.00    +0.000 OA
ATOM     13  C20 UNL     1      62.617  57.138  72.241  0.00  0.00    +0.000 A 
ATOM     14  C21 UNL     1      63.520  57.818  73.059  0.00  0.00    +0.000 A 
ATOM     15  C22 UNL     1      64.608  57.102  73.587  0.00  0.00    +0.000 A 
ATOM     16  C23 UNL     1      64.773  55.735  73.287  0.00  0.00    +0.000 A 
ATOM     17  C24 UNL     1      63.849  55.072  72.460  0.00  0.00    +0.000 A 
ATOM     18  C25 UNL     1      62.777  55.805  71.950  0.00  0.00    +0.000 A 
ATOM     19  C26 UNL     1      61.699  55.374  71.070  0.00  0.00    +0.000 C 
ATOM     20  O5  UNL     1      61.595  54.214  70.592  0.00  0.00    +0.000 OA
ENDROOT
BRANCH   7  21
ATOM     21  C5  UNL     1      56.350  54.476  72.644  0.00  0.00    +0.000 A 
ATOM     22  C6  UNL     1      55.700  55.259  73.613  0.00  0.00    +0.000 A 
ATOM     23  C7  UNL     1      54.670  54.716  74.387  0.00  0.00    +0.000 A 
ATOM     24  C8  UNL     1      54.279  53.387  74.201  0.00  0.00    +0.000 A 
ATOM     25  C9  UNL     1      54.918  52.599  73.238  0.00  0.00    +0.000 A 
ATOM     26 CL1  UNL     1      54.423  50.934  73.001  0.00  0.00    +0.000 Cl
ATOM     27  C10 UNL     1      55.950  53.141  72.463  0.00  0.00    +0.000 A 
ENDBRANCH   7  21
BRANCH  10  28
ATOM     28  C13 UNL     1      59.318  55.971  67.593  0.00  0.00    +0.000 A 
ATOM     29  C14 UNL     1      58.566  56.579  66.573  0.00  0.00    +0.000 A 
ATOM     30  C15 UNL     1      58.510  56.005  65.299  0.00  0.00    +0.000 A 
ATOM     31  C16 UNL     1      59.193  54.815  65.036  0.00  0.00    +0.000 A 
ATOM     32  C17 UNL     1      59.926  54.191  66.049  0.00  0.00    +0.000 A 
ATOM     33  C18 UNL     1      59.983  54.761  67.325  0.00  0.00    +0.000 A 
ENDBRANCH  10  28
TORSDOF 2
ENDMDL
MODEL 2
REMARK VINA RESULT:    -8.575      2.165      5.896
REMARK INTER + INTRA:         -10.601
REMARK INTER:                  -9.643
REMARK INTRA:                  -0.958
REMARK UNBOUND:                -1.024
REMARK  Name = CNP0054636_2.pdb
REMARK  2 active torsions:
REMARK  status: ('A' for Active; 'I' for Inactive)
REMARK    1  A    between atoms: N1_7  and  C5_8
REMARK    2  A    between atoms: C12_17  and  C13_18
REMARK                            x       y       z     vdW  Elec       q    Type
REMARK                         _______ _______ _______ _____ _____    ______ ____
ROOT
ATOM      1  O1  UNL     1      56.654  54.130  69.701  0.00  0.00    +0.000 OA
ATOM      2  C1  UNL     1      57.842  54.481  69.929  0.00  0.00    +0.000 C 
ATOM      3  C2  UNL     1      58.438  54.691  71.273  0.00  0.00    +0.000 C 
ATOM      4  C3  UNL     1      59.882  54.497  70.964  0.00  0.00    +0.000 C 
ATOM      5  C4  UNL     1      59.982  55.180  69.649  0.00  0.00    +0.000 C 
ATOM      6  O2  UNL     1      61.037  55.652  69.146  0.00  0.00    +0.000 OA
ATOM      7  N1  UNL     1      58.751  54.984  68.938  0.00  0.00    +0.000 N 
ATOM      8  C11 UNL     1      60.479  54.778  72.328  0.00  0.00    +0.000 C 
ATOM      9  O3  UNL     1      59.546  54.255  73.279  0.00  0.00    +0.000 OA
ATOM     10  C12 UNL     1      58.359  53.897  72.556  0.00  0.00    +0.000 C 
ATOM     11  C19 UNL     1      61.837  54.148  72.507  0.00  0.00    +0.000 C 
ATOM     12  O4  UNL     1      62.075  52.913  72.433  0.00  0.00    +0.000 OA
ATOM     13  C20 UNL     1      62.835  55.165  72.806  0.00  0.00    +0.000 A 
ATOM     14  C21 UNL     1      64.204  55.023  73.035  0.00  0.00    +0.000 A 
ATOM     15  C22 UNL     1      64.954  56.177  73.317  0.00  0.00    +0.000 A 
ATOM     16  C23 UNL     1      64.327  57.439  73.367  0.00  0.00    +0.000 A 
ATOM     17  C24 UNL     1      62.946  57.556  73.132  0.00  0.00    +0.000 A 
ATOM     18  C25 UNL     1      62.224  56.394  72.853  0.00  0.00    +0.000 A 
ATOM     19  C26 UNL     1      60.801  56.233  72.590  0.00  0.00    +0.000 C 
ATOM     20  O5  UNL     1      59.965  57.174  72.608  0.00  0.00    +0.000 OA
ENDROOT
BRANCH   7  21
ATOM     21  C5  UNL     1      58.505  55.191  67.536  0.00  0.00    +0.000 A 
ATOM     22  C6  UNL     1      58.555  56.483  66.987  0.00  0.00    +0.000 A 
ATOM     23  C7  UNL     1      58.310  56.683  65.625  0.00  0.00    +0.000 A 
ATOM     24  C8  UNL     1      58.015  55.595  64.799  0.00  0.00    +0.000 A 
ATOM     25  C9  UNL     1      57.963  54.304  65.335  0.00  0.00    +0.000 A 
ATOM     26 CL1  UNL     1      57.597  52.939  64.297  0.00  0.00    +0.000 Cl
ATOM     27  C10 UNL     1      58.207  54.103  66.699  0.00  0.00    +0.000 A 
ENDBRANCH   7  21
BRANCH  10  28
ATOM     28  C13 UNL     1      57.116  54.239  73.343  0.00  0.00    +0.000 A 
ATOM     29  C14 UNL     1      57.172  55.228  74.340  0.00  0.00    +0.000 A 
ATOM     30  C15 UNL     1      56.036  55.535  75.095  0.00  0.00    +0.000 A 
ATOM     31  C16 UNL     1      54.839  54.850  74.870  0.00  0.00    +0.000 A 
ATOM     32  C17 UNL     1      54.778  53.850  73.896  0.00  0.00    +0.000 A 
ATOM     33  C18 UNL     1      55.912  53.539  73.140  0.00  0.00    +0.000 A 
ENDBRANCH  10  28
TORSDOF 2
ENDMDL
MODEL 3
REMARK VINA RESULT:    -8.545      2.278      6.884
REMARK INTER + INTRA:         -10.568
REMARK INTER:                  -9.505
REMARK INTRA:                  -1.063
REMARK UNBOUND:                -1.024
REMARK  Name = CNP0054636_2.pdb
REMARK  2 active torsions:
REMARK  status: ('A' for Active; 'I' for Inactive)
REMARK    1  A    between atoms: N1_7  and  C5_8
REMARK    2  A    between atoms: C12_17  and  C13_18
REMARK                            x       y       z     vdW  Elec       q    Type
REMARK                         _______ _______ _______ _____ _____    ______ ____
ROOT
ATOM      1  O1  UNL     1      61.358  56.705  68.996  0.00  0.00    +0.000 OA
ATOM      2  C1  UNL     1      60.324  56.250  69.554  0.00  0.00    +0.000 C 
ATOM      3  C2  UNL     1      60.174  55.979  71.006  0.00  0.00    +0.000 C 
ATOM      4  C3  UNL     1      58.692  56.047  71.144  0.00  0.00    +0.000 C 
ATOM      5  C4  UNL     1      58.262  55.367  69.896  0.00  0.00    +0.000 C 
ATOM      6  O2  UNL     1      57.148  54.808  69.712  0.00  0.00    +0.000 OA
ATOM      7  N1  UNL     1      59.206  55.676  68.860  0.00  0.00    +0.000 N 
ATOM      8  C11 UNL     1      58.554  55.705  72.614  0.00  0.00    +0.000 C 
ATOM      9  O3  UNL     1      59.681  56.302  73.263  0.00  0.00    +0.000 OA
ATOM     10  C12 UNL     1      60.566  56.768  72.234  0.00  0.00    +0.000 C 
ATOM     11  C19 UNL     1      57.263  56.212  73.207  0.00  0.00    +0.000 C 
ATOM     12  O4  UNL     1      56.913  57.422  73.247  0.00  0.00    +0.000 OA
ATOM     13  C20 UNL     1      56.486  55.109  73.754  0.00  0.00    +0.000 A 
ATOM     14  C21 UNL     1      55.240  55.129  74.382  0.00  0.00    +0.000 A 
ATOM     15  C22 UNL     1      54.705  53.911  74.835  0.00  0.00    +0.000 A 
ATOM     16  C23 UNL     1      55.420  52.709  74.656  0.00  0.00    +0.000 A 
ATOM     17  C24 UNL     1      56.673  52.716  74.020  0.00  0.00    +0.000 A 
ATOM     18  C25 UNL     1      57.182  53.938  73.578  0.00  0.00    +0.000 A 
ATOM     19  C26 UNL     1      58.444  54.226  72.912  0.00  0.00    +0.000 C 
ATOM     20  O5  UNL     1      59.322  53.362  72.651  0.00  0.00    +0.000 OA
ENDROOT
BRANCH   7  21
ATOM     21  C5  UNL     1      59.040  55.501  67.442  0.00  0.00    +0.000 A 
ATOM     22  C6  UNL     1      58.193  56.353  66.713  0.00  0.00    +0.000 A 
ATOM     23  C7  UNL     1      58.030  56.178  65.335  0.00  0.00    +0.000 A 
ATOM     24  C8  UNL     1      58.711  55.153  64.673  0.00  0.00    +0.000 A 
ATOM     25  C9  UNL     1      59.558  54.300  65.389  0.00  0.00    +0.000 A 
ATOM     26 CL1  UNL     1      60.416  53.017  64.556  0.00  0.00    +0.000 Cl
ATOM     27  C10 UNL     1      59.721  54.472  66.768  0.00  0.00    +0.000 A 
ENDBRANCH   7  21
BRANCH  10  28
ATOM     28  C13 UNL     1      62.010  56.531  72.606  0.00  0.00    +0.000 A 
ATOM     29  C14 UNL     1      62.398  55.289  73.137  0.00  0.00    +0.000 A 
ATOM     30  C15 UNL     1      63.727  55.065  73.512  0.00  0.00    +0.000 A 
ATOM     31  C16 UNL     1      64.675  56.082  73.373  0.00  0.00    +0.000 A 
ATOM     32  C17 UNL     1      64.295  57.328  72.866  0.00  0.00    +0.000 A 
ATOM     33  C18 UNL     1      62.967  57.556  72.491  0.00  0.00    +0.000 A 
ENDBRANCH  10  28
TORSDOF 2
ENDMDL
MODEL 4
REMARK VINA RESULT:    -8.418      1.088      5.529
REMARK INTER + INTRA:         -10.426
REMARK INTER:                  -9.587
REMARK INTRA:                  -0.839
REMARK UNBOUND:                -1.024
REMARK  Name = CNP0054636_2.pdb
REMARK  2 active torsions:
REMARK  status: ('A' for Active; 'I' for Inactive)
REMARK    1  A    between atoms: N1_7  and  C5_8
REMARK    2  A    between atoms: C12_17  and  C13_18
REMARK                            x       y       z     vdW  Elec       q    Type
REMARK                         _______ _______ _______ _____ _____    ______ ____
ROOT
ATOM      1  O1  UNL     1      59.693  54.628  74.112  0.00  0.00    +0.000 OA
ATOM      2  C1  UNL     1      59.271  54.735  72.931  0.00  0.00    +0.000 C 
ATOM      3  C2  UNL     1      60.083  55.140  71.756  0.00  0.00    +0.000 C 
ATOM      4  C3  UNL     1      59.286  54.537  70.652  0.00  0.00    +0.000 C 
ATOM      5  C4  UNL     1      57.903  54.811  71.122  0.00  0.00    +0.000 C 
ATOM      6  O2  UNL     1      56.880  54.872  70.390  0.00  0.00    +0.000 OA
ATOM      7  N1  UNL     1      57.885  54.733  72.554  0.00  0.00    +0.000 N 
ATOM      8  C11 UNL     1      60.091  55.014  69.460  0.00  0.00    +0.000 C 
ATOM      9  O3  UNL     1      61.460  54.992  69.878  0.00  0.00    +0.000 OA
ATOM     10  C12 UNL     1      61.468  54.750  71.293  0.00  0.00    +0.000 C 
ATOM     11  C19 UNL     1      59.889  54.150  68.241  0.00  0.00    +0.000 C 
ATOM     12  O4  UNL     1      60.147  52.918  68.179  0.00  0.00    +0.000 OA
ATOM     13  C20 UNL     1      59.379  54.944  67.133  0.00  0.00    +0.000 A 
ATOM     14  C21 UNL     1      59.049  54.547  65.837  0.00  0.00    +0.000 A 
ATOM     15  C22 UNL     1      58.581  55.523  64.941  0.00  0.00    +0.000 A 
ATOM     16  C23 UNL     1      58.457  56.865  65.353  0.00  0.00    +0.000 A 
ATOM     17  C24 UNL     1      58.796  57.240  66.665  0.00  0.00    +0.000 A 
ATOM     18  C25 UNL     1      59.257  56.251  67.535  0.00  0.00    +0.000 A 
ATOM     19  C26 UNL     1      59.683  56.368  68.922  0.00  0.00    +0.000 C 
ATOM     20  O5  UNL     1      59.728  57.451  69.562  0.00  0.00    +0.000 OA
ENDROOT
BRANCH   7  21
ATOM     21  C5  UNL     1      56.736  54.621  73.412  0.00  0.00    +0.000 A 
ATOM     22  C6  UNL     1      56.560  55.507  74.488  0.00  0.00    +0.000 A 
ATOM     23  C7  UNL     1      55.445  55.393  75.323  0.00  0.00    +0.000 A 
ATOM     24  C8  UNL     1      54.495  54.394  75.092  0.00  0.00    +0.000 A 
ATOM     25  C9  UNL     1      54.660  53.507  74.023  0.00  0.00    +0.000 A 
ATOM     26 CL1  UNL     1      53.464  52.257  73.731  0.00  0.00    +0.000 Cl
ATOM     27  C10 UNL     1      55.776  53.619  73.187  0.00  0.00    +0.000 A 
ENDBRANCH   7  21
BRANCH  10  28
ATOM     28  C13 UNL     1      62.533  55.568  71.982  0.00  0.00    +0.000 A 
ATOM     29  C14 UNL     1      62.664  56.935  71.683  0.00  0.00    +0.000 A 
ATOM     30  C15 UNL     1      63.664  57.699  72.293  0.00  0.00    +0.000 A 
ATOM     31  C16 UNL     1      64.549  57.103  73.195  0.00  0.00    +0.000 A 
ATOM     32  C17 UNL     1      64.442  55.740  73.483  0.00  0.00    +0.000 A 
ATOM     33  C18 UNL     1      63.444  54.972  72.874  0.00  0.00    +0.000 A 
ENDBRANCH  10  28
TORSDOF 2
ENDMDL
MODEL 5
REMARK VINA RESULT:    -7.970      2.805      3.817
REMARK INTER + INTRA:          -9.925
REMARK INTER:                  -8.872
REMARK INTRA:                  -1.054
REMARK UNBOUND:                -1.024
REMARK  Name = CNP0054636_2.pdb
REMARK  2 active torsions:
REMARK  status: ('A' for Active; 'I' for Inactive)
REMARK    1  A    between atoms: N1_7  and  C5_8
REMARK    2  A    between atoms: C12_17  and  C13_18
REMARK                            x       y       z     vdW  Elec       q    Type
REMARK                         _______ _______ _______ _____ _____    ______ ____
ROOT
ATOM      1  O1  UNL     1      57.371  57.598  73.054  0.00  0.00    +0.000 OA
ATOM      2  C1  UNL     1      58.144  56.605  73.098  0.00  0.00    +0.000 C 
ATOM      3  C2  UNL     1      59.400  56.452  72.320  0.00  0.00    +0.000 C 
ATOM      4  C3  UNL     1      60.129  55.470  73.169  0.00  0.00    +0.000 C 
ATOM      5  C4  UNL     1      59.020  54.566  73.568  0.00  0.00    +0.000 C 
ATOM      6  O2  UNL     1      59.149  53.370  73.943  0.00  0.00    +0.000 OA
ATOM      7  N1  UNL     1      57.824  55.345  73.707  0.00  0.00    +0.000 N 
ATOM      8  C11 UNL     1      61.376  55.277  72.330  0.00  0.00    +0.000 C 
ATOM      9  O3  UNL     1      61.660  56.555  71.751  0.00  0.00    +0.000 OA
ATOM     10  C12 UNL     1      60.536  57.404  72.025  0.00  0.00    +0.000 C 
ATOM     11  C19 UNL     1      62.548  54.782  73.139  0.00  0.00    +0.000 C 
ATOM     12  O4  UNL     1      63.056  55.390  74.119  0.00  0.00    +0.000 OA
ATOM     13  C20 UNL     1      63.031  53.514  72.613  0.00  0.00    +0.000 A 
ATOM     14  C21 UNL     1      64.082  52.712  73.059  0.00  0.00    +0.000 A 
ATOM     15  C22 UNL     1      64.355  51.524  72.360  0.00  0.00    +0.000 A 
ATOM     16  C23 UNL     1      63.582  51.165  71.237  0.00  0.00    +0.000 A 
ATOM     17  C24 UNL     1      62.529  51.991  70.807  0.00  0.00    +0.000 A 
ATOM     18  C25 UNL     1      62.277  53.165  71.519  0.00  0.00    +0.000 A 
ATOM     19  C26 UNL     1      61.271  54.190  71.283  0.00  0.00    +0.000 C 
ATOM     20  O5  UNL     1      60.455  54.177  70.324  0.00  0.00    +0.000 OA
ENDROOT
BRANCH   7  21
ATOM     21  C5  UNL     1      56.600  54.966  74.362  0.00  0.00    +0.000 A 
ATOM     22  C6  UNL     1      55.470  54.609  73.608  0.00  0.00    +0.000 A 
ATOM     23  C7  UNL     1      54.280  54.245  74.247  0.00  0.00    +0.000 A 
ATOM     24  C8  UNL     1      54.209  54.233  75.643  0.00  0.00    +0.000 A 
ATOM     25  C9  UNL     1      55.329  54.585  76.402  0.00  0.00    +0.000 A 
ATOM     26 CL1  UNL     1      55.241  54.563  78.154  0.00  0.00    +0.000 Cl
ATOM     27  C10 UNL     1      56.520  54.951  75.765  0.00  0.00    +0.000 A 
ENDBRANCH   7  21
BRANCH  10  28
ATOM     28  C13 UNL     1      60.222  58.292  70.845  0.00  0.00    +0.000 A 
ATOM     29  C14 UNL     1      60.728  59.602  70.804  0.00  0.00    +0.000 A 
ATOM     30  C15 UNL     1      60.423  60.445  69.731  0.00  0.00    +0.000 A 
ATOM     31  C16 UNL     1      59.599  59.992  68.696  0.00  0.00    +0.000 A 
ATOM     32  C17 UNL     1      59.072  58.698  68.738  0.00  0.00    +0.000 A 
ATOM     33  C18 UNL     1      59.375  57.853  69.810  0.00  0.00    +0.000 A 
ENDBRANCH  10  28
TORSDOF 2
ENDMDL
MODEL 6
REMARK VINA RESULT:    -7.766      2.475      5.120
REMARK INTER + INTRA:          -9.697
REMARK INTER:                  -8.693
REMARK INTRA:                  -1.004
REMARK UNBOUND:                -1.024
REMARK  Name = CNP0054636_2.pdb
REMARK  2 active torsions:
REMARK  status: ('A' for Active; 'I' for Inactive)
REMARK    1  A    between atoms: N1_7  and  C5_8
REMARK    2  A    between atoms: C12_17  and  C13_18
REMARK                            x       y       z     vdW  Elec       q    Type
REMARK                         _______ _______ _______ _____ _____    ______ ____
ROOT
ATOM      1  O1  UNL     1      58.606  53.115  74.317  0.00  0.00    +0.000 OA
ATOM      2  C1  UNL     1      58.513  54.147  73.600  0.00  0.00    +0.000 C 
ATOM      3  C2  UNL     1      59.609  54.736  72.789  0.00  0.00    +0.000 C 
ATOM      4  C3  UNL     1      58.821  55.489  71.773  0.00  0.00    +0.000 C 
ATOM      5  C4  UNL     1      57.724  56.032  72.615  0.00  0.00    +0.000 C 
ATOM      6  O2  UNL     1      57.026  57.046  72.345  0.00  0.00    +0.000 OA
ATOM      7  N1  UNL     1      57.419  55.075  73.639  0.00  0.00    +0.000 N 
ATOM      8  C11 UNL     1      59.950  56.134  70.996  0.00  0.00    +0.000 C 
ATOM      9  O3  UNL     1      61.011  55.174  70.976  0.00  0.00    +0.000 OA
ATOM     10  C12 UNL     1      60.645  54.119  71.878  0.00  0.00    +0.000 C 
ATOM     11  C19 UNL     1      59.545  56.514  69.594  0.00  0.00    +0.000 C 
ATOM     12  O4  UNL     1      59.132  55.707  68.718  0.00  0.00    +0.000 OA
ATOM     13  C20 UNL     1      59.724  57.943  69.381  0.00  0.00    +0.000 A 
ATOM     14  C21 UNL     1      59.467  58.708  68.243  0.00  0.00    +0.000 A 
ATOM     15  C22 UNL     1      59.739  60.086  68.293  0.00  0.00    +0.000 A 
ATOM     16  C23 UNL     1      60.259  60.666  69.468  0.00  0.00    +0.000 A 
ATOM     17  C24 UNL     1      60.509  59.873  70.602  0.00  0.00    +0.000 A 
ATOM     18  C25 UNL     1      60.229  58.508  70.526  0.00  0.00    +0.000 A 
ATOM     19  C26 UNL     1      60.405  57.472  71.534  0.00  0.00    +0.000 C 
ATOM     20  O5  UNL     1      60.893  57.671  72.678  0.00  0.00    +0.000 OA
ENDROOT
BRANCH   7  21
ATOM     21  C5  UNL     1      56.249  55.027  74.475  0.00  0.00    +0.000 A 
ATOM     22  C6  UNL     1      56.308  55.464  75.809  0.00  0.00    +0.000 A 
ATOM     23  C7  UNL     1      55.171  55.412  76.621  0.00  0.00    +0.000 A 
ATOM     24  C8  UNL     1      53.965  54.926  76.109  0.00  0.00    +0.000 A 
ATOM     25  C9  UNL     1      53.895  54.490  74.782  0.00  0.00    +0.000 A 
ATOM     26 CL1  UNL     1      52.380  53.885  74.139  0.00  0.00    +0.000 Cl
ATOM     27  C10 UNL     1      55.032  54.540  73.968  0.00  0.00    +0.000 A 
ENDBRANCH   7  21
BRANCH  10  28
ATOM     28  C13 UNL     1      61.842  53.626  72.656  0.00  0.00    +0.000 A 
ATOM     29  C14 UNL     1      62.696  52.666  72.087  0.00  0.00    +0.000 A 
ATOM     30  C15 UNL     1      63.792  52.180  72.807  0.00  0.00    +0.000 A 
ATOM     31  C16 UNL     1      64.036  52.637  74.105  0.00  0.00    +0.000 A 
ATOM     32  C17 UNL     1      63.181  53.575  74.688  0.00  0.00    +0.000 A 
ATOM     33  C18 UNL     1      62.083  54.064  73.972  0.00  0.00    +0.000 A 
ENDBRANCH  10  28
TORSDOF 2
ENDMDL
MODEL 7
REMARK VINA RESULT:    -7.529      1.921      2.565
REMARK INTER + INTRA:          -9.432
REMARK INTER:                  -8.674
REMARK INTRA:                  -0.758
REMARK UNBOUND:                -1.024
REMARK  Name = CNP0054636_2.pdb
REMARK  2 active torsions:
REMARK  status: ('A' for Active; 'I' for Inactive)
REMARK    1  A    between atoms: N1_7  and  C5_8
REMARK    2  A    between atoms: C12_17  and  C13_18
REMARK                            x       y       z     vdW  Elec       q    Type
REMARK                         _______ _______ _______ _____ _____    ______ ____
ROOT
ATOM      1  O1  UNL     1      55.293  53.194  68.555  0.00  0.00    +0.000 OA
ATOM      2  C1  UNL     1      56.208  53.499  69.365  0.00  0.00    +0.000 C 
ATOM      3  C2  UNL     1      57.430  54.276  69.036  0.00  0.00    +0.000 C 
ATOM      4  C3  UNL     1      57.786  54.807  70.381  0.00  0.00    +0.000 C 
ATOM      5  C4  UNL     1      57.484  53.631  71.236  0.00  0.00    +0.000 C 
ATOM      6  O2  UNL     1      57.975  53.407  72.374  0.00  0.00    +0.000 OA
ATOM      7  N1  UNL     1      56.358  52.938  70.678  0.00  0.00    +0.000 N 
ATOM      8  C11 UNL     1      59.067  55.541  70.038  0.00  0.00    +0.000 C 
ATOM      9  O3  UNL     1      58.867  56.087  68.731  0.00  0.00    +0.000 OA
ATOM     10  C12 UNL     1      57.650  55.527  68.217  0.00  0.00    +0.000 C 
ATOM     11  C19 UNL     1      59.393  56.629  71.030  0.00  0.00    +0.000 C 
ATOM     12  O4  UNL     1      58.656  57.618  71.285  0.00  0.00    +0.000 OA
ATOM     13  C20 UNL     1      60.696  56.393  71.634  0.00  0.00    +0.000 A 
ATOM     14  C21 UNL     1      61.375  57.141  72.597  0.00  0.00    +0.000 A 
ATOM     15  C22 UNL     1      62.643  56.697  73.011  0.00  0.00    +0.000 A 
ATOM     16  C23 UNL     1      63.203  55.528  72.459  0.00  0.00    +0.000 A 
ATOM     17  C24 UNL     1      62.499  54.792  71.490  0.00  0.00    +0.000 A 
ATOM     18  C25 UNL     1      61.241  55.253  71.097  0.00  0.00    +0.000 A 
ATOM     19  C26 UNL     1      60.319  54.697  70.117  0.00  0.00    +0.000 C 
ATOM     20  O5  UNL     1      60.555  53.675  69.420  0.00  0.00    +0.000 OA
ENDROOT
BRANCH   7  21
ATOM     21  C5  UNL     1      55.534  51.946  71.315  0.00  0.00    +0.000 A 
ATOM     22  C6  UNL     1      54.777  52.273  72.452  0.00  0.00    +0.000 A 
ATOM     23  C7  UNL     1      53.980  51.306  73.073  0.00  0.00    +0.000 A 
ATOM     24  C8  UNL     1      53.931  50.005  72.565  0.00  0.00    +0.000 A 
ATOM     25  C9  UNL     1      54.681  49.669  71.432  0.00  0.00    +0.000 A 
ATOM     26 CL1  UNL     1      54.616  48.038  70.792  0.00  0.00    +0.000 Cl
ATOM     27  C10 UNL     1      55.480  50.635  70.810  0.00  0.00    +0.000 A 
ENDBRANCH   7  21
BRANCH  10  28
ATOM     28  C13 UNL     1      57.772  55.212  66.746  0.00  0.00    +0.000 A 
ATOM     29  C14 UNL     1      57.705  53.878  66.310  0.00  0.00    +0.000 A 
ATOM     30  C15 UNL     1      57.843  53.569  64.954  0.00  0.00    +0.000 A 
ATOM     31  C16 UNL     1      58.063  54.587  64.022  0.00  0.00    +0.000 A 
ATOM     32  C17 UNL     1      58.153  55.915  64.447  0.00  0.00    +0.000 A 
ATOM     33  C18 UNL     1      58.016  56.228  65.803  0.00  0.00    +0.000 A 
ENDBRANCH  10  28
TORSDOF 2
ENDMDL
MODEL 8
REMARK VINA RESULT:    -7.501      2.571      4.095
REMARK INTER + INTRA:          -9.401
REMARK INTER:                  -8.349
REMARK INTRA:                  -1.052
REMARK UNBOUND:                -1.024
REMARK  Name = CNP0054636_2.pdb
REMARK  2 active torsions:
REMARK  status: ('A' for Active; 'I' for Inactive)
REMARK    1  A    between atoms: N1_7  and  C5_8
REMARK    2  A    between atoms: C12_17  and  C13_18
REMARK                            x       y       z     vdW  Elec       q    Type
REMARK                         _______ _______ _______ _____ _____    ______ ____
ROOT
ATOM      1  O1  UNL     1      57.809  57.404  73.315  0.00  0.00    +0.000 OA
ATOM      2  C1  UNL     1      58.387  56.362  72.907  0.00  0.00    +0.000 C 
ATOM      3  C2  UNL     1      59.346  56.292  71.776  0.00  0.00    +0.000 C 
ATOM      4  C3  UNL     1      60.098  55.056  72.131  0.00  0.00    +0.000 C 
ATOM      5  C4  UNL     1      58.998  54.194  72.635  0.00  0.00    +0.000 C 
ATOM      6  O2  UNL     1      59.017  52.935  72.682  0.00  0.00    +0.000 OA
ATOM      7  N1  UNL     1      58.031  55.025  73.292  0.00  0.00    +0.000 N 
ATOM      8  C11 UNL     1      61.026  54.965  70.937  0.00  0.00    +0.000 C 
ATOM      9  O3  UNL     1      61.358  56.314  70.595  0.00  0.00    +0.000 OA
ATOM     10  C12 UNL     1      60.508  57.171  71.371  0.00  0.00    +0.000 C 
ATOM     11  C19 UNL     1      62.269  54.164  71.230  0.00  0.00    +0.000 C 
ATOM     12  O4  UNL     1      63.114  54.444  72.122  0.00  0.00    +0.000 OA
ATOM     13  C20 UNL     1      62.374  53.034  70.319  0.00  0.00    +0.000 A 
ATOM     14  C21 UNL     1      63.354  52.043  70.244  0.00  0.00    +0.000 A 
ATOM     15  C22 UNL     1      63.226  51.055  69.253  0.00  0.00    +0.000 A 
ATOM     16  C23 UNL     1      62.134  51.078  68.362  0.00  0.00    +0.000 A 
ATOM     17  C24 UNL     1      61.160  52.087  68.458  0.00  0.00    +0.000 A 
ATOM     18  C25 UNL     1      61.309  53.055  69.452  0.00  0.00    +0.000 A 
ATOM     19  C26 UNL     1      60.465  54.202  69.758  0.00  0.00    +0.000 C 
ATOM     20  O5  UNL     1      59.434  54.517  69.108  0.00  0.00    +0.000 OA
ENDROOT
BRANCH   7  21
ATOM     21  C5  UNL     1      56.979  54.612  74.183  0.00  0.00    +0.000 A 
ATOM     22  C6  UNL     1      57.226  54.467  75.558  0.00  0.00    +0.000 A 
ATOM     23  C7  UNL     1      56.204  54.060  76.421  0.00  0.00    +0.000 A 
ATOM     24  C8  UNL     1      54.926  53.797  75.920  0.00  0.00    +0.000 A 
ATOM     25  C9  UNL     1      54.669  53.940  74.552  0.00  0.00    +0.000 A 
ATOM     26 CL1  UNL     1      53.064  53.615  73.925  0.00  0.00    +0.000 Cl
ATOM     27  C10 UNL     1      55.692  54.345  73.687  0.00  0.00    +0.000 A 
ENDBRANCH   7  21
BRANCH  10  28
ATOM     28  C13 UNL     1      60.047  58.360  70.564  0.00  0.00    +0.000 A 
ATOM     29  C14 UNL     1      58.874  58.269  69.795  0.00  0.00    +0.000 A 
ATOM     30  C15 UNL     1      58.450  59.354  69.021  0.00  0.00    +0.000 A 
ATOM     31  C16 UNL     1      59.200  60.533  68.997  0.00  0.00    +0.000 A 
ATOM     32  C17 UNL     1      60.379  60.627  69.740  0.00  0.00    +0.000 A 
ATOM     33  C18 UNL     1      60.807  59.544  70.515  0.00  0.00    +0.000 A 
ENDBRANCH  10  28
TORSDOF 2
ENDMDL
MODEL 9
REMARK VINA RESULT:    -7.285      2.860      4.283
REMARK INTER + INTRA:          -9.161
REMARK INTER:                  -8.103
REMARK INTRA:                  -1.057
REMARK UNBOUND:                -1.024
REMARK  Name = CNP0054636_2.pdb
REMARK  2 active torsions:
REMARK  status: ('A' for Active; 'I' for Inactive)
REMARK    1  A    between atoms: N1_7  and  C5_8
REMARK    2  A    between atoms: C12_17  and  C13_18
REMARK                            x       y       z     vdW  Elec       q    Type
REMARK                         _______ _______ _______ _____ _____    ______ ____
ROOT
ATOM      1  O1  UNL     1      56.880  52.589  72.604  0.00  0.00    +0.000 OA
ATOM      2  C1  UNL     1      57.115  53.793  72.316  0.00  0.00    +0.000 C 
ATOM      3  C2  UNL     1      58.175  54.269  71.392  0.00  0.00    +0.000 C 
ATOM      4  C3  UNL     1      57.620  55.594  70.999  0.00  0.00    +0.000 C 
ATOM      5  C4  UNL     1      57.064  56.061  72.296  0.00  0.00    +0.000 C 
ATOM      6  O2  UNL     1      56.848  57.261  72.610  0.00  0.00    +0.000 OA
ATOM      7  N1  UNL     1      56.574  54.922  73.018  0.00  0.00    +0.000 N 
ATOM      8  C11 UNL     1      58.741  56.091  70.110  0.00  0.00    +0.000 C 
ATOM      9  O3  UNL     1      59.242  54.937  69.428  0.00  0.00    +0.000 OA
ATOM     10  C12 UNL     1      58.632  53.788  70.034  0.00  0.00    +0.000 C 
ATOM     11  C19 UNL     1      58.280  57.137  69.127  0.00  0.00    +0.000 C 
ATOM     12  O4  UNL     1      57.391  56.962  68.252  0.00  0.00    +0.000 OA
ATOM     13  C20 UNL     1      59.026  58.373  69.311  0.00  0.00    +0.000 A 
ATOM     14  C21 UNL     1      58.917  59.584  68.626  0.00  0.00    +0.000 A 
ATOM     15  C22 UNL     1      59.774  60.636  68.995  0.00  0.00    +0.000 A 
ATOM     16  C23 UNL     1      60.715  60.458  70.029  0.00  0.00    +0.000 A 
ATOM     17  C24 UNL     1      60.805  59.228  70.703  0.00  0.00    +0.000 A 
ATOM     18  C25 UNL     1      59.943  58.200  70.319  0.00  0.00    +0.000 A 
ATOM     19  C26 UNL     1      59.836  56.843  70.835  0.00  0.00    +0.000 C 
ATOM     20  O5  UNL     1      60.575  56.366  71.736  0.00  0.00    +0.000 OA
ENDROOT
BRANCH   7  21
ATOM     21  C5  UNL     1      55.692  54.918  74.155  0.00  0.00    +0.000 A 
ATOM     22  C6  UNL     1      56.178  55.233  75.435  0.00  0.00    +0.000 A 
ATOM     23  C7  UNL     1      55.321  55.224  76.539  0.00  0.00    +0.000 A 
ATOM     24  C8  UNL     1      53.971  54.900  76.376  0.00  0.00    +0.000 A 
ATOM     25  C9  UNL     1      53.476  54.585  75.106  0.00  0.00    +0.000 A 
ATOM     26 CL1  UNL     1      51.781  54.185  74.901  0.00  0.00    +0.000 Cl
ATOM     27  C10 UNL     1      54.334  54.593  73.999  0.00  0.00    +0.000 A 
ENDBRANCH   7  21
BRANCH  10  28
ATOM     28  C13 UNL     1      59.614  52.647  70.153  0.00  0.00    +0.000 A 
ATOM     29  C14 UNL     1      60.979  52.918  70.344  0.00  0.00    +0.000 A 
ATOM     30  C15 UNL     1      61.903  51.872  70.428  0.00  0.00    +0.000 A 
ATOM     31  C16 UNL     1      61.474  50.547  70.308  0.00  0.00    +0.000 A 
ATOM     32  C17 UNL     1      60.121  50.267  70.095  0.00  0.00    +0.000 A 
ATOM     33  C18 UNL     1      59.194  51.311  70.010  0.00  0.00    +0.000 A 
ENDBRANCH  10  28
TORSDOF 2
ENDMDL
MODEL 10
REMARK VINA RESULT:    -7.221      2.017      2.832
REMARK INTER + INTRA:          -9.089
REMARK INTER:                  -8.868
REMARK INTRA:                  -0.220
REMARK UNBOUND:                -1.024
REMARK  Name = CNP0054636_2.pdb
REMARK  2 active torsions:
REMARK  status: ('A' for Active; 'I' for Inactive)
REMARK    1  A    between atoms: N1_7  and  C5_8
REMARK    2  A    between atoms: C12_17  and  C13_18
REMARK                            x       y       z     vdW  Elec       q    Type
REMARK                         _______ _______ _______ _____ _____    ______ ____
ROOT
ATOM      1  O1  UNL     1      55.767  53.172  67.966  0.00  0.00    +0.000 OA
ATOM      2  C1  UNL     1      56.537  53.851  68.695  0.00  0.00    +0.000 C 
ATOM      3  C2  UNL     1      57.636  54.725  68.211  0.00  0.00    +0.000 C 
ATOM      4  C3  UNL     1      57.770  55.658  69.364  0.00  0.00    +0.000 C 
ATOM      5  C4  UNL     1      57.591  54.723  70.505  0.00  0.00    +0.000 C 
ATOM      6  O2  UNL     1      58.004  54.914  71.680  0.00  0.00    +0.000 OA
ATOM      7  N1  UNL     1      56.656  53.706  70.118  0.00  0.00    +0.000 N 
ATOM      8  C11 UNL     1      58.935  56.499  68.883  0.00  0.00    +0.000 C 
ATOM      9  O3  UNL     1      58.770  56.623  67.467  0.00  0.00    +0.000 OA
ATOM     10  C12 UNL     1      57.719  55.726  67.082  0.00  0.00    +0.000 C 
ATOM     11  C19 UNL     1      58.979  57.857  69.538  0.00  0.00    +0.000 C 
ATOM     12  O4  UNL     1      58.065  58.721  69.470  0.00  0.00    +0.000 OA
ATOM     13  C20 UNL     1      60.240  58.042  70.240  0.00  0.00    +0.000 A 
ATOM     14  C21 UNL     1      60.690  59.137  70.979  0.00  0.00    +0.000 A 
ATOM     15  C22 UNL     1      61.970  59.070  71.556  0.00  0.00    +0.000 A 
ATOM     16  C23 UNL     1      62.769  57.921  71.383  0.00  0.00    +0.000 A 
ATOM     17  C24 UNL     1      62.292  56.831  70.634  0.00  0.00    +0.000 A 
ATOM     18  C25 UNL     1      61.018  56.923  70.072  0.00  0.00    +0.000 A 
ATOM     19  C26 UNL     1      60.299  55.959  69.252  0.00  0.00    +0.000 C 
ATOM     20  O5  UNL     1      60.768  54.850  68.885  0.00  0.00    +0.000 OA
ENDROOT
BRANCH   7  21
ATOM     21  C5  UNL     1      55.955  52.788  70.975  0.00  0.00    +0.000 A 
ATOM     22  C6  UNL     1      55.444  51.584  70.462  0.00  0.00    +0.000 A 
ATOM     23  C7  UNL     1      54.758  50.695  71.296  0.00  0.00    +0.000 A 
ATOM     24  C8  UNL     1      54.577  50.999  72.648  0.00  0.00    +0.000 A 
ATOM     25  C9  UNL     1      55.082  52.195  73.169  0.00  0.00    +0.000 A 
ATOM     26 CL1  UNL     1      54.859  52.574  74.866  0.00  0.00    +0.000 Cl
ATOM     27  C10 UNL     1      55.768  53.087  72.335  0.00  0.00    +0.000 A 
ENDBRANCH   7  21
BRANCH  10  28
ATOM     28  C13 UNL     1      58.029  55.052  65.767  0.00  0.00    +0.000 A 
ATOM     29  C14 UNL     1      57.839  55.751  64.563  0.00  0.00    +0.000 A 
ATOM     30  C15 UNL     1      58.096  55.131  63.337  0.00  0.00    +0.000 A 
ATOM     31  C16 UNL     1      58.532  53.803  63.301  0.00  0.00    +0.000 A 
ATOM     32  C17 UNL     1      58.703  53.092  64.491  0.00  0.00    +0.000 A 
ATOM     33  C18 UNL     1      58.446  53.709  65.720  0.00  0.00    +0.000 A 
ENDBRANCH  10  28
TORSDOF 2
ENDMDL
