MODEL 1
REMARK VINA RESULT:    -7.718      0.000      0.000
REMARK INTER + INTRA:          -8.169
REMARK INTER:                  -8.169
REMARK INTRA:                   0.000
REMARK UNBOUND:                 0.000
REMARK  Name = CNP0071339_1.pdb
REMARK  6 active torsions:
REMARK  status: ('A' for Active; 'I' for Inactive)
REMARK    1  A    between atoms: C1_1  and  C2_2
REMARK    2  A    between atoms: C2_2  and  C3_3
REMARK    3  A    between atoms: C9_11  and  C10_12
REMARK    4  A    between atoms: C11_13  and  C12_14
REMARK    5  A    between atoms: C20_23  and  O4_24
REMARK    6  A    between atoms: C21_25  and  O5_26
REMARK                            x       y       z     vdW  Elec       q    Type
REMARK                         _______ _______ _______ _____ _____    ______ ____
ROOT
ATOM      1  C1  UNL     1      61.032  59.486  71.269  0.00  0.00    +0.000 C 
ATOM      2  C2  UNL     1      60.958  58.023  71.739  0.00  0.00    +0.000 C 
ATOM      3  C3  UNL     1      61.559  57.928  73.161  0.00  0.00    +0.000 C 
ATOM      4  O1  UNL     1      59.603  57.626  71.786  0.00  0.00    +0.000 OA
ATOM      5  C4  UNL     1      59.595  56.225  71.601  0.00  0.00    +0.000 C 
ATOM      6  C5  UNL     1      58.394  55.768  70.798  0.00  0.00    +0.000 C 
ATOM      7  C6  UNL     1      57.973  54.392  71.310  0.00  0.00    +0.000 C 
ATOM      8  O2  UNL     1      57.481  54.320  72.427  0.00  0.00    +0.000 OA
ATOM      9  C7  UNL     1      58.094  53.111  70.515  0.00  0.00    +0.000 C 
ATOM     10  C8  UNL     1      58.592  53.286  69.069  0.00  0.00    +0.000 C 
ATOM     11  C9  UNL     1      58.219  54.659  68.445  0.00  0.00    +0.000 C 
ATOM     12  C10 UNL     1      56.651  54.785  68.474  0.00  0.00    +0.000 C 
ATOM     13  C11 UNL     1      58.737  54.780  66.940  0.00  0.00    +0.000 C 
ATOM     14  C12 UNL     1      60.241  54.382  66.743  0.00  0.00    +0.000 C 
ATOM     15  C13 UNL     1      57.994  54.048  65.858  0.00  0.00    +0.000 A 
ATOM     16  C14 UNL     1      57.943  54.808  64.718  0.00  0.00    +0.000 A 
ATOM     17  C15 UNL     1      58.505  56.179  64.896  0.00  0.00    +0.000 C 
ATOM     18  C16 UNL     1      58.456  56.231  66.432  0.00  0.00    +0.000 C 
ATOM     19  C17 UNL     1      59.221  57.285  67.222  0.00  0.00    +0.000 C 
ATOM     20  C18 UNL     1      58.748  57.205  68.694  0.00  0.00    +0.000 C 
ATOM     21  C19 UNL     1      58.917  55.782  69.339  0.00  0.00    +0.000 C 
ATOM     22  O3  UNL     1      60.312  55.535  69.428  0.00  0.00    +0.000 OA
ATOM     23  C20 UNL     1      60.771  55.841  70.734  0.00  0.00    +0.000 C 
ATOM     24  C21 UNL     1      61.657  57.085  70.731  0.00  0.00    +0.000 C 
ATOM     25  C22 UNL     1      57.905  53.932  63.662  0.00  0.00    +0.000 A 
ATOM     26  C23 UNL     1      58.017  54.137  62.290  0.00  0.00    +0.000 A 
ATOM     27  C24 UNL     1      58.076  53.000  61.464  0.00  0.00    +0.000 A 
ATOM     28  C25 UNL     1      58.065  51.703  62.026  0.00  0.00    +0.000 A 
ATOM     29  C26 UNL     1      58.001  51.530  63.422  0.00  0.00    +0.000 A 
ATOM     30  C27 UNL     1      57.911  52.670  64.220  0.00  0.00    +0.000 A 
ATOM     31  N1  UNL     1      57.997  52.726  65.567  0.00  0.00    +0.000 N 
ATOM     32  H33 UNL     1      58.213  51.932  66.209  0.00  0.00    +0.000 HD
ENDROOT
BRANCH  23  33
ATOM     33  O4  UNL     1      61.425  54.723  71.286  0.00  0.00    +0.000 OA
ATOM     34  H26 UNL     1      61.908  54.274  70.543  0.00  0.00    +0.000 HD
ENDBRANCH  23  33
BRANCH  24  35
ATOM     35  O5  UNL     1      62.983  56.788  71.097  0.00  0.00    +0.000 OA
ATOM     36  H28 UNL     1      63.012  56.806  72.088  0.00  0.00    +0.000 HD
ENDBRANCH  24  35
TORSDOF 2
ENDMDL
MODEL 2
REMARK VINA RESULT:    -7.715      1.788      3.830
REMARK INTER + INTRA:          -8.166
REMARK INTER:                  -8.166
REMARK INTRA:                   0.000
REMARK UNBOUND:                 0.000
REMARK  Name = CNP0071339_1.pdb
REMARK  6 active torsions:
REMARK  status: ('A' for Active; 'I' for Inactive)
REMARK    1  A    between atoms: C1_1  and  C2_2
REMARK    2  A    between atoms: C2_2  and  C3_3
REMARK    3  A    between atoms: C9_11  and  C10_12
REMARK    4  A    between atoms: C11_13  and  C12_14
REMARK    5  A    between atoms: C20_23  and  O4_24
REMARK    6  A    between atoms: C21_25  and  O5_26
REMARK                            x       y       z     vdW  Elec       q    Type
REMARK                         _______ _______ _______ _____ _____    ______ ____
ROOT
ATOM      1  C1  UNL     1      58.898  52.569  73.174  0.00  0.00    +0.000 C 
ATOM      2  C2  UNL     1      58.410  54.009  72.936  0.00  0.00    +0.000 C 
ATOM      3  C3  UNL     1      57.961  54.609  74.290  0.00  0.00    +0.000 C 
ATOM      4  O1  UNL     1      59.479  54.776  72.425  0.00  0.00    +0.000 OA
ATOM      5  C4  UNL     1      58.894  55.817  71.670  0.00  0.00    +0.000 C 
ATOM      6  C5  UNL     1      59.718  56.159  70.445  0.00  0.00    +0.000 C 
ATOM      7  C6  UNL     1      59.584  57.657  70.183  0.00  0.00    +0.000 C 
ATOM      8  O2  UNL     1      60.108  58.429  70.975  0.00  0.00    +0.000 OA
ATOM      9  C7  UNL     1      58.873  58.255  68.990  0.00  0.00    +0.000 C 
ATOM     10  C8  UNL     1      58.355  57.235  67.961  0.00  0.00    +0.000 C 
ATOM     11  C9  UNL     1      59.198  55.931  67.901  0.00  0.00    +0.000 C 
ATOM     12  C10 UNL     1      60.674  56.334  67.536  0.00  0.00    +0.000 C 
ATOM     13  C11 UNL     1      58.634  54.917  66.804  0.00  0.00    +0.000 C 
ATOM     14  C12 UNL     1      57.088  54.670  66.890  0.00  0.00    +0.000 C 
ATOM     15  C13 UNL     1      58.904  55.199  65.352  0.00  0.00    +0.000 A 
ATOM     16  C14 UNL     1      59.154  54.031  64.680  0.00  0.00    +0.000 A 
ATOM     17  C15 UNL     1      59.224  52.837  65.574  0.00  0.00    +0.000 C 
ATOM     18  C16 UNL     1      59.436  53.581  66.903  0.00  0.00    +0.000 C 
ATOM     19  C17 UNL     1      59.250  52.885  68.246  0.00  0.00    +0.000 C 
ATOM     20  C18 UNL     1      59.787  53.835  69.346  0.00  0.00    +0.000 C 
ATOM     21  C19 UNL     1      59.111  55.254  69.344  0.00  0.00    +0.000 C 
ATOM     22  O3  UNL     1      57.754  55.062  69.710  0.00  0.00    +0.000 OA
ATOM     23  C20 UNL     1      57.587  55.325  71.093  0.00  0.00    +0.000 C 
ATOM     24  C21 UNL     1      57.295  54.042  71.869  0.00  0.00    +0.000 C 
ATOM     25  C22 UNL     1      58.728  54.221  63.389  0.00  0.00    +0.000 A 
ATOM     26  C23 UNL     1      58.579  53.334  62.328  0.00  0.00    +0.000 A 
ATOM     27  C24 UNL     1      57.980  53.819  61.151  0.00  0.00    +0.000 A 
ATOM     28  C25 UNL     1      57.511  55.150  61.082  0.00  0.00    +0.000 A 
ATOM     29  C26 UNL     1      57.631  56.009  62.191  0.00  0.00    +0.000 A 
ATOM     30  C27 UNL     1      58.257  55.517  63.335  0.00  0.00    +0.000 A 
ATOM     31  N1  UNL     1      58.331  56.120  64.542  0.00  0.00    +0.000 N 
ATOM     32  H33 UNL     1      57.870  57.014  64.819  0.00  0.00    +0.000 HD
ENDROOT
BRANCH  23  33
ATOM     33  O4  UNL     1      56.588  56.299  71.278  0.00  0.00    +0.000 OA
ATOM     34  H26 UNL     1      56.996  57.178  71.062  0.00  0.00    +0.000 HD
ENDBRANCH  23  33
BRANCH  24  35
ATOM     35  O5  UNL     1      56.005  54.050  72.432  0.00  0.00    +0.000 OA
ATOM     36  H28 UNL     1      55.589  53.182  72.194  0.00  0.00    +0.000 HD
ENDBRANCH  24  35
TORSDOF 2
ENDMDL
MODEL 3
REMARK VINA RESULT:    -7.640      3.565      8.019
REMARK INTER + INTRA:          -8.086
REMARK INTER:                  -8.086
REMARK INTRA:                   0.000
REMARK UNBOUND:                 0.000
REMARK  Name = CNP0071339_1.pdb
REMARK  6 active torsions:
REMARK  status: ('A' for Active; 'I' for Inactive)
REMARK    1  A    between atoms: C1_1  and  C2_2
REMARK    2  A    between atoms: C2_2  and  C3_3
REMARK    3  A    between atoms: C9_11  and  C10_12
REMARK    4  A    between atoms: C11_13  and  C12_14
REMARK    5  A    between atoms: C20_23  and  O4_24
REMARK    6  A    between atoms: C21_25  and  O5_26
REMARK                            x       y       z     vdW  Elec       q    Type
REMARK                         _______ _______ _______ _____ _____    ______ ____
ROOT
ATOM      1  C1  UNL     1      57.290  54.025  66.069  0.00  0.00    +0.000 C 
ATOM      2  C2  UNL     1      58.367  55.111  66.235  0.00  0.00    +0.000 C 
ATOM      3  C3  UNL     1      58.488  55.894  64.906  0.00  0.00    +0.000 C 
ATOM      4  O1  UNL     1      57.968  55.999  67.258  0.00  0.00    +0.000 OA
ATOM      5  C4  UNL     1      59.155  56.548  67.791  0.00  0.00    +0.000 C 
ATOM      6  C5  UNL     1      59.051  56.774  69.286  0.00  0.00    +0.000 C 
ATOM      7  C6  UNL     1      59.864  58.017  69.638  0.00  0.00    +0.000 C 
ATOM      8  O2  UNL     1      59.446  59.104  69.263  0.00  0.00    +0.000 OA
ATOM      9  C7  UNL     1      61.139  58.002  70.451  0.00  0.00    +0.000 C 
ATOM     10  C8  UNL     1      61.540  56.626  71.011  0.00  0.00    +0.000 C 
ATOM     11  C9  UNL     1      60.329  55.691  71.283  0.00  0.00    +0.000 C 
ATOM     12  C10 UNL     1      59.388  56.416  72.313  0.00  0.00    +0.000 C 
ATOM     13  C11 UNL     1      60.796  54.286  71.883  0.00  0.00    +0.000 C 
ATOM     14  C12 UNL     1      61.961  53.601  71.087  0.00  0.00    +0.000 C 
ATOM     15  C13 UNL     1      61.216  54.219  73.325  0.00  0.00    +0.000 A 
ATOM     16  C14 UNL     1      60.782  53.049  73.893  0.00  0.00    +0.000 A 
ATOM     17  C15 UNL     1      59.915  52.239  72.988  0.00  0.00    +0.000 C 
ATOM     18  C16 UNL     1      59.548  53.353  71.992  0.00  0.00    +0.000 C 
ATOM     19  C17 UNL     1      58.931  53.040  70.635  0.00  0.00    +0.000 C 
ATOM     20  C18 UNL     1      58.460  54.379  70.013  0.00  0.00    +0.000 C 
ATOM     21  C19 UNL     1      59.600  55.453  69.883  0.00  0.00    +0.000 C 
ATOM     22  O3  UNL     1      60.525  54.956  68.930  0.00  0.00    +0.000 OA
ATOM     23  C20 UNL     1      60.264  55.530  67.661  0.00  0.00    +0.000 C 
ATOM     24  C21 UNL     1      59.707  54.492  66.688  0.00  0.00    +0.000 C 
ATOM     25  C22 UNL     1      61.691  52.726  74.870  0.00  0.00    +0.000 A 
ATOM     26  C23 UNL     1      61.847  51.577  75.639  0.00  0.00    +0.000 A 
ATOM     27  C24 UNL     1      62.976  51.499  76.473  0.00  0.00    +0.000 A 
ATOM     28  C25 UNL     1      63.932  52.541  76.485  0.00  0.00    +0.000 A 
ATOM     29  C26 UNL     1      63.770  53.669  75.658  0.00  0.00    +0.000 A 
ATOM     30  C27 UNL     1      62.627  53.739  74.863  0.00  0.00    +0.000 A 
ATOM     31  N1  UNL     1      62.365  54.648  73.898  0.00  0.00    +0.000 N 
ATOM     32  H33 UNL     1      63.010  55.392  73.554  0.00  0.00    +0.000 HD
ENDROOT
BRANCH  23  33
ATOM     33  O4  UNL     1      61.426  56.152  67.167  0.00  0.00    +0.000 OA
ATOM     34  H26 UNL     1      61.455  57.064  67.559  0.00  0.00    +0.000 HD
ENDBRANCH  23  33
BRANCH  24  35
ATOM     35  O5  UNL     1      60.584  54.253  65.614  0.00  0.00    +0.000 OA
ATOM     36  H28 UNL     1      60.494  55.027  64.999  0.00  0.00    +0.000 HD
ENDBRANCH  24  35
TORSDOF 2
ENDMDL
MODEL 4
REMARK VINA RESULT:    -7.441      4.424      8.260
REMARK INTER + INTRA:          -7.876
REMARK INTER:                  -7.876
REMARK INTRA:                   0.000
REMARK UNBOUND:                 0.000
REMARK  Name = CNP0071339_1.pdb
REMARK  6 active torsions:
REMARK  status: ('A' for Active; 'I' for Inactive)
REMARK    1  A    between atoms: C1_1  and  C2_2
REMARK    2  A    between atoms: C2_2  and  C3_3
REMARK    3  A    between atoms: C9_11  and  C10_12
REMARK    4  A    between atoms: C11_13  and  C12_14
REMARK    5  A    between atoms: C20_23  and  O4_24
REMARK    6  A    between atoms: C21_25  and  O5_26
REMARK                            x       y       z     vdW  Elec       q    Type
REMARK                         _______ _______ _______ _____ _____    ______ ____
ROOT
ATOM      1  C1  UNL     1      59.973  59.351  69.948  0.00  0.00    +0.000 C 
ATOM      2  C2  UNL     1      59.248  58.040  69.598  0.00  0.00    +0.000 C 
ATOM      3  C3  UNL     1      58.070  58.363  68.649  0.00  0.00    +0.000 C 
ATOM      4  O1  UNL     1      60.151  57.181  68.933  0.00  0.00    +0.000 OA
ATOM      5  C4  UNL     1      59.703  55.865  69.183  0.00  0.00    +0.000 C 
ATOM      6  C5  UNL     1      60.857  54.895  69.339  0.00  0.00    +0.000 C 
ATOM      7  C6  UNL     1      60.422  53.542  68.780  0.00  0.00    +0.000 C 
ATOM      8  O2  UNL     1      60.265  53.443  67.571  0.00  0.00    +0.000 OA
ATOM      9  C7  UNL     1      60.202  52.302  69.618  0.00  0.00    +0.000 C 
ATOM     10  C8  UNL     1      60.547  52.454  71.110  0.00  0.00    +0.000 C 
ATOM     11  C9  UNL     1      61.665  53.498  71.385  0.00  0.00    +0.000 C 
ATOM     12  C10 UNL     1      62.948  53.040  70.600  0.00  0.00    +0.000 C 
ATOM     13  C11 UNL     1      62.001  53.600  72.944  0.00  0.00    +0.000 C 
ATOM     14  C12 UNL     1      60.742  53.761  73.864  0.00  0.00    +0.000 C 
ATOM     15  C13 UNL     1      62.815  52.509  73.581  0.00  0.00    +0.000 A 
ATOM     16  C14 UNL     1      63.680  53.038  74.504  0.00  0.00    +0.000 A 
ATOM     17  C15 UNL     1      63.678  54.531  74.527  0.00  0.00    +0.000 C 
ATOM     18  C16 UNL     1      63.021  54.764  73.156  0.00  0.00    +0.000 C 
ATOM     19  C17 UNL     1      62.451  56.121  72.764  0.00  0.00    +0.000 C 
ATOM     20  C18 UNL     1      62.111  56.069  71.254  0.00  0.00    +0.000 C 
ATOM     21  C19 UNL     1      61.126  54.907  70.865  0.00  0.00    +0.000 C 
ATOM     22  O3  UNL     1      59.879  55.206  71.473  0.00  0.00    +0.000 OA
ATOM     23  C20 UNL     1      59.023  55.829  70.532  0.00  0.00    +0.000 C 
ATOM     24  C21 UNL     1      58.799  57.300  70.877  0.00  0.00    +0.000 C 
ATOM     25  C22 UNL     1      63.864  52.078  75.467  0.00  0.00    +0.000 A 
ATOM     26  C23 UNL     1      64.493  52.126  76.707  0.00  0.00    +0.000 A 
ATOM     27  C24 UNL     1      64.393  50.992  77.533  0.00  0.00    +0.000 A 
ATOM     28  C25 UNL     1      63.639  49.869  77.122  0.00  0.00    +0.000 A 
ATOM     29  C26 UNL     1      62.972  49.871  75.881  0.00  0.00    +0.000 A 
ATOM     30  C27 UNL     1      63.112  50.993  75.065  0.00  0.00    +0.000 A 
ATOM     31  N1  UNL     1      62.437  51.255  73.924  0.00  0.00    +0.000 N 
ATOM     32  H33 UNL     1      61.659  50.690  73.519  0.00  0.00    +0.000 HD
ENDROOT
BRANCH  23  33
ATOM     33  O4  UNL     1      57.813  55.115  70.437  0.00  0.00    +0.000 OA
ATOM     34  H26 UNL     1      57.151  55.723  70.014  0.00  0.00    +0.000 HD
ENDBRANCH  23  33
BRANCH  24  35
ATOM     35  O5  UNL     1      57.459  57.564  71.213  0.00  0.00    +0.000 OA
ATOM     36  H28 UNL     1      56.965  56.713  71.090  0.00  0.00    +0.000 HD
ENDBRANCH  24  35
TORSDOF 2
ENDMDL
MODEL 5
REMARK VINA RESULT:    -7.386      3.057      7.986
REMARK INTER + INTRA:          -7.817
REMARK INTER:                  -7.817
REMARK INTRA:                   0.000
REMARK UNBOUND:                 0.000
REMARK  Name = CNP0071339_1.pdb
REMARK  6 active torsions:
REMARK  status: ('A' for Active; 'I' for Inactive)
REMARK    1  A    between atoms: C1_1  and  C2_2
REMARK    2  A    between atoms: C2_2  and  C3_3
REMARK    3  A    between atoms: C9_11  and  C10_12
REMARK    4  A    between atoms: C11_13  and  C12_14
REMARK    5  A    between atoms: C20_23  and  O4_24
REMARK    6  A    between atoms: C21_25  and  O5_26
REMARK                            x       y       z     vdW  Elec       q    Type
REMARK                         _______ _______ _______ _____ _____    ______ ____
ROOT
ATOM      1  C1  UNL     1      56.999  50.471  65.496  0.00  0.00    +0.000 C 
ATOM      2  C2  UNL     1      57.667  51.731  64.918  0.00  0.00    +0.000 C 
ATOM      3  C3  UNL     1      57.431  51.758  63.389  0.00  0.00    +0.000 C 
ATOM      4  O1  UNL     1      57.070  52.872  65.496  0.00  0.00    +0.000 OA
ATOM      5  C4  UNL     1      58.045  53.894  65.452  0.00  0.00    +0.000 C 
ATOM      6  C5  UNL     1      57.977  54.792  66.670  0.00  0.00    +0.000 C 
ATOM      7  C6  UNL     1      58.357  56.207  66.242  0.00  0.00    +0.000 C 
ATOM      8  O2  UNL     1      57.580  56.820  65.523  0.00  0.00    +0.000 OA
ATOM      9  C7  UNL     1      59.620  56.920  66.673  0.00  0.00    +0.000 C 
ATOM     10  C8  UNL     1      60.490  56.152  67.684  0.00  0.00    +0.000 C 
ATOM     11  C9  UNL     1      59.676  55.201  68.605  0.00  0.00    +0.000 C 
ATOM     12  C10 UNL     1      58.623  56.073  69.381  0.00  0.00    +0.000 C 
ATOM     13  C11 UNL     1      60.620  54.446  69.649  0.00  0.00    +0.000 C 
ATOM     14  C12 UNL     1      61.886  53.780  69.009  0.00  0.00    +0.000 C 
ATOM     15  C13 UNL     1      61.137  55.209  70.837  0.00  0.00    +0.000 A 
ATOM     16  C14 UNL     1      61.154  54.404  71.948  0.00  0.00    +0.000 A 
ATOM     17  C15 UNL     1      60.540  53.064  71.716  0.00  0.00    +0.000 C 
ATOM     18  C16 UNL     1      59.759  53.406  70.436  0.00  0.00    +0.000 C 
ATOM     19  C17 UNL     1      59.186  52.320  69.534  0.00  0.00    +0.000 C 
ATOM     20  C18 UNL     1      58.259  53.008  68.501  0.00  0.00    +0.000 C 
ATOM     21  C19 UNL     1      58.970  54.128  67.657  0.00  0.00    +0.000 C 
ATOM     22  O3  UNL     1      59.939  53.479  66.849  0.00  0.00    +0.000 OA
ATOM     23  C20 UNL     1      59.415  53.265  65.549  0.00  0.00    +0.000 C 
ATOM     24  C21 UNL     1      59.165  51.780  65.292  0.00  0.00    +0.000 C 
ATOM     25  C22 UNL     1      62.183  54.849  72.739  0.00  0.00    +0.000 A 
ATOM     26  C23 UNL     1      62.762  54.311  73.885  0.00  0.00    +0.000 A 
ATOM     27  C24 UNL     1      63.909  54.945  74.395  0.00  0.00    +0.000 A 
ATOM     28  C25 UNL     1      64.467  56.061  73.730  0.00  0.00    +0.000 A 
ATOM     29  C26 UNL     1      63.887  56.551  72.544  0.00  0.00    +0.000 A 
ATOM     30  C27 UNL     1      62.731  55.926  72.075  0.00  0.00    +0.000 A 
ATOM     31  N1  UNL     1      62.119  56.140  70.890  0.00  0.00    +0.000 N 
ATOM     32  H33 UNL     1      62.457  56.754  70.117  0.00  0.00    +0.000 HD
ENDROOT
BRANCH  23  33
ATOM     33  O4  UNL     1      60.271  53.835  64.588  0.00  0.00    +0.000 OA
ATOM     34  H26 UNL     1      59.842  53.698  63.702  0.00  0.00    +0.000 HD
ENDBRANCH  23  33
BRANCH  24  35
ATOM     35  O5  UNL     1      59.995  51.275  64.274  0.00  0.00    +0.000 OA
ATOM     36  H28 UNL     1      60.823  50.958  64.718  0.00  0.00    +0.000 HD
ENDBRANCH  24  35
TORSDOF 2
ENDMDL
MODEL 6
REMARK VINA RESULT:    -7.382      3.309      7.897
REMARK INTER + INTRA:          -7.814
REMARK INTER:                  -7.814
REMARK INTRA:                   0.000
REMARK UNBOUND:                 0.000
REMARK  Name = CNP0071339_1.pdb
REMARK  6 active torsions:
REMARK  status: ('A' for Active; 'I' for Inactive)
REMARK    1  A    between atoms: C1_1  and  C2_2
REMARK    2  A    between atoms: C2_2  and  C3_3
REMARK    3  A    between atoms: C9_11  and  C10_12
REMARK    4  A    between atoms: C11_13  and  C12_14
REMARK    5  A    between atoms: C20_23  and  O4_24
REMARK    6  A    between atoms: C21_25  and  O5_26
REMARK                            x       y       z     vdW  Elec       q    Type
REMARK                         _______ _______ _______ _____ _____    ______ ____
ROOT
ATOM      1  C1  UNL     1      54.342  49.911  66.687  0.00  0.00    +0.000 C 
ATOM      2  C2  UNL     1      55.684  50.038  65.947  0.00  0.00    +0.000 C 
ATOM      3  C3  UNL     1      55.796  48.885  64.922  0.00  0.00    +0.000 C 
ATOM      4  O1  UNL     1      55.712  51.270  65.257  0.00  0.00    +0.000 OA
ATOM      5  C4  UNL     1      57.073  51.626  65.136  0.00  0.00    +0.000 C 
ATOM      6  C5  UNL     1      57.279  53.123  65.251  0.00  0.00    +0.000 C 
ATOM      7  C6  UNL     1      58.443  53.516  64.345  0.00  0.00    +0.000 C 
ATOM      8  O2  UNL     1      58.279  53.449  63.134  0.00  0.00    +0.000 OA
ATOM      9  C7  UNL     1      59.781  54.016  64.842  0.00  0.00    +0.000 C 
ATOM     10  C8  UNL     1      59.880  54.208  66.366  0.00  0.00    +0.000 C 
ATOM     11  C9  UNL     1      58.522  54.558  67.036  0.00  0.00    +0.000 C 
ATOM     12  C10 UNL     1      57.993  55.884  66.378  0.00  0.00    +0.000 C 
ATOM     13  C11 UNL     1      58.683  54.770  68.611  0.00  0.00    +0.000 C 
ATOM     14  C12 UNL     1      59.474  53.627  69.337  0.00  0.00    +0.000 C 
ATOM     15  C13 UNL     1      59.297  56.048  69.109  0.00  0.00    +0.000 A 
ATOM     16  C14 UNL     1      58.662  56.468  70.249  0.00  0.00    +0.000 A 
ATOM     17  C15 UNL     1      57.473  55.638  70.603  0.00  0.00    +0.000 C 
ATOM     18  C16 UNL     1      57.264  54.972  69.233  0.00  0.00    +0.000 C 
ATOM     19  C17 UNL     1      56.374  53.747  69.067  0.00  0.00    +0.000 C 
ATOM     20  C18 UNL     1      56.188  53.502  67.549  0.00  0.00    +0.000 C 
ATOM     21  C19 UNL     1      57.539  53.330  66.764  0.00  0.00    +0.000 C 
ATOM     22  O3  UNL     1      58.128  52.124  67.221  0.00  0.00    +0.000 OA
ATOM     23  C20 UNL     1      57.830  51.071  66.320  0.00  0.00    +0.000 C 
ATOM     24  C21 UNL     1      56.863  50.067  66.944  0.00  0.00    +0.000 C 
ATOM     25  C22 UNL     1      59.595  57.148  70.992  0.00  0.00    +0.000 A 
ATOM     26  C23 UNL     1      59.557  57.637  72.294  0.00  0.00    +0.000 A 
ATOM     27  C24 UNL     1      60.743  58.177  72.823  0.00  0.00    +0.000 A 
ATOM     28  C25 UNL     1      61.934  58.175  72.060  0.00  0.00    +0.000 A 
ATOM     29  C26 UNL     1      61.951  57.628  70.763  0.00  0.00    +0.000 A 
ATOM     30  C27 UNL     1      60.756  57.127  70.248  0.00  0.00    +0.000 A 
ATOM     31  N1  UNL     1      60.597  56.428  69.103  0.00  0.00    +0.000 N 
ATOM     32  H33 UNL     1      61.355  56.097  68.466  0.00  0.00    +0.000 HD
ENDROOT
BRANCH  23  33
ATOM     33  O4  UNL     1      59.021  50.462  65.883  0.00  0.00    +0.000 OA
ATOM     34  H26 UNL     1      59.345  49.891  66.628  0.00  0.00    +0.000 HD
ENDBRANCH  23  33
BRANCH  24  35
ATOM     35  O5  UNL     1      57.456  48.803  67.118  0.00  0.00    +0.000 OA
ATOM     36  H28 UNL     1      57.486  48.638  68.096  0.00  0.00    +0.000 HD
ENDBRANCH  24  35
TORSDOF 2
ENDMDL
MODEL 7
REMARK VINA RESULT:    -6.996      3.918      8.321
REMARK INTER + INTRA:          -7.405
REMARK INTER:                  -7.405
REMARK INTRA:                   0.000
REMARK UNBOUND:                 0.000
REMARK  Name = CNP0071339_1.pdb
REMARK  6 active torsions:
REMARK  status: ('A' for Active; 'I' for Inactive)
REMARK    1  A    between atoms: C1_1  and  C2_2
REMARK    2  A    between atoms: C2_2  and  C3_3
REMARK    3  A    between atoms: C9_11  and  C10_12
REMARK    4  A    between atoms: C11_13  and  C12_14
REMARK    5  A    between atoms: C20_23  and  O4_24
REMARK    6  A    between atoms: C21_25  and  O5_26
REMARK                            x       y       z     vdW  Elec       q    Type
REMARK                         _______ _______ _______ _____ _____    ______ ____
ROOT
ATOM      1  C1  UNL     1      60.633  56.166  66.630  0.00  0.00    +0.000 C 
ATOM      2  C2  UNL     1      59.333  56.225  67.452  0.00  0.00    +0.000 C 
ATOM      3  C3  UNL     1      58.237  56.904  66.597  0.00  0.00    +0.000 C 
ATOM      4  O1  UNL     1      58.926  54.908  67.759  0.00  0.00    +0.000 OA
ATOM      5  C4  UNL     1      58.173  54.995  68.951  0.00  0.00    +0.000 C 
ATOM      6  C5  UNL     1      58.392  53.791  69.847  0.00  0.00    +0.000 C 
ATOM      7  C6  UNL     1      57.086  53.501  70.582  0.00  0.00    +0.000 C 
ATOM      8  O2  UNL     1      56.142  53.073  69.933  0.00  0.00    +0.000 OA
ATOM      9  C7  UNL     1      56.888  53.675  72.072  0.00  0.00    +0.000 C 
ATOM     10  C8  UNL     1      58.149  54.084  72.854  0.00  0.00    +0.000 C 
ATOM     11  C9  UNL     1      59.469  53.578  72.210  0.00  0.00    +0.000 C 
ATOM     12  C10 UNL     1      59.392  52.009  72.133  0.00  0.00    +0.000 C 
ATOM     13  C11 UNL     1      60.744  54.009  73.071  0.00  0.00    +0.000 C 
ATOM     14  C12 UNL     1      60.771  55.526  73.467  0.00  0.00    +0.000 C 
ATOM     15  C13 UNL     1      61.040  53.267  74.345  0.00  0.00    +0.000 A 
ATOM     16  C14 UNL     1      62.393  53.101  74.495  0.00  0.00    +0.000 A 
ATOM     17  C15 UNL     1      63.180  53.569  73.316  0.00  0.00    +0.000 C 
ATOM     18  C16 UNL     1      62.033  53.594  72.292  0.00  0.00    +0.000 C 
ATOM     19  C17 UNL     1      62.168  54.319  70.959  0.00  0.00    +0.000 C 
ATOM     20  C18 UNL     1      60.949  53.929  70.086  0.00  0.00    +0.000 C 
ATOM     21  C19 UNL     1      59.563  54.236  70.760  0.00  0.00    +0.000 C 
ATOM     22  O3  UNL     1      59.459  55.648  70.857  0.00  0.00    +0.000 OA
ATOM     23  C20 UNL     1      58.694  56.150  69.774  0.00  0.00    +0.000 C 
ATOM     24  C21 UNL     1      59.567  56.939  68.801  0.00  0.00    +0.000 C 
ATOM     25  C22 UNL     1      62.639  53.075  75.845  0.00  0.00    +0.000 A 
ATOM     26  C23 UNL     1      63.829  53.101  76.565  0.00  0.00    +0.000 A 
ATOM     27  C24 UNL     1      63.742  53.202  77.966  0.00  0.00    +0.000 A 
ATOM     28  C25 UNL     1      62.483  53.316  78.599  0.00  0.00    +0.000 A 
ATOM     29  C26 UNL     1      61.299  53.337  77.838  0.00  0.00    +0.000 A 
ATOM     30  C27 UNL     1      61.408  53.203  76.454  0.00  0.00    +0.000 A 
ATOM     31  N1  UNL     1      60.420  53.353  75.545  0.00  0.00    +0.000 N 
ATOM     32  H33 UNL     1      59.441  53.661  75.736  0.00  0.00    +0.000 HD
ENDROOT
BRANCH  23  33
ATOM     33  O4  UNL     1      57.616  56.913  70.261  0.00  0.00    +0.000 OA
ATOM     34  H26 UNL     1      57.392  56.556  71.160  0.00  0.00    +0.000 HD
ENDBRANCH  23  33
BRANCH  24  35
ATOM     35  O5  UNL     1      59.213  58.301  68.761  0.00  0.00    +0.000 OA
ATOM     36  H28 UNL     1      59.922  58.761  68.242  0.00  0.00    +0.000 HD
ENDBRANCH  24  35
TORSDOF 2
ENDMDL
MODEL 8
REMARK VINA RESULT:    -6.935      1.483      2.154
REMARK INTER + INTRA:          -7.341
REMARK INTER:                  -7.341
REMARK INTRA:                   0.000
REMARK UNBOUND:                 0.000
REMARK  Name = CNP0071339_1.pdb
REMARK  6 active torsions:
REMARK  status: ('A' for Active; 'I' for Inactive)
REMARK    1  A    between atoms: C1_1  and  C2_2
REMARK    2  A    between atoms: C2_2  and  C3_3
REMARK    3  A    between atoms: C9_11  and  C10_12
REMARK    4  A    between atoms: C11_13  and  C12_14
REMARK    5  A    between atoms: C20_23  and  O4_24
REMARK    6  A    between atoms: C21_25  and  O5_26
REMARK                            x       y       z     vdW  Elec       q    Type
REMARK                         _______ _______ _______ _____ _____    ______ ____
ROOT
ATOM      1  C1  UNL     1      58.988  58.953  69.517  0.00  0.00    +0.000 C 
ATOM      2  C2  UNL     1      59.250  57.559  70.115  0.00  0.00    +0.000 C 
ATOM      3  C3  UNL     1      59.681  57.726  71.591  0.00  0.00    +0.000 C 
ATOM      4  O1  UNL     1      58.055  56.808  70.067  0.00  0.00    +0.000 OA
ATOM      5  C4  UNL     1      58.443  55.451  70.017  0.00  0.00    +0.000 C 
ATOM      6  C5  UNL     1      57.512  54.629  69.147  0.00  0.00    +0.000 C 
ATOM      7  C6  UNL     1      57.414  53.227  69.744  0.00  0.00    +0.000 C 
ATOM      8  O2  UNL     1      56.829  53.095  70.810  0.00  0.00    +0.000 OA
ATOM      9  C7  UNL     1      57.966  51.980  69.090  0.00  0.00    +0.000 C 
ATOM     10  C8  UNL     1      58.569  52.191  67.689  0.00  0.00    +0.000 C 
ATOM     11  C9  UNL     1      57.920  53.365  66.905  0.00  0.00    +0.000 C 
ATOM     12  C10 UNL     1      56.384  53.056  66.768  0.00  0.00    +0.000 C 
ATOM     13  C11 UNL     1      58.564  53.526  65.452  0.00  0.00    +0.000 C 
ATOM     14  C12 UNL     1      60.131  53.544  65.441  0.00  0.00    +0.000 C 
ATOM     15  C13 UNL     1      58.176  52.549  64.377  0.00  0.00    +0.000 A 
ATOM     16  C14 UNL     1      58.061  53.190  63.171  0.00  0.00    +0.000 A 
ATOM     17  C15 UNL     1      58.213  54.671  63.272  0.00  0.00    +0.000 C 
ATOM     18  C16 UNL     1      57.969  54.807  64.784  0.00  0.00    +0.000 C 
ATOM     19  C17 UNL     1      58.326  56.080  65.540  0.00  0.00    +0.000 C 
ATOM     20  C18 UNL     1      57.718  55.969  66.961  0.00  0.00    +0.000 C 
ATOM     21  C19 UNL     1      58.182  54.692  67.751  0.00  0.00    +0.000 C 
ATOM     22  O3  UNL     1      59.571  54.845  67.999  0.00  0.00    +0.000 OA
ATOM     23  C20 UNL     1      59.773  55.349  69.308  0.00  0.00    +0.000 C 
ATOM     24  C21 UNL     1      60.289  56.787  69.273  0.00  0.00    +0.000 C 
ATOM     25  C22 UNL     1      58.385  52.270  62.205  0.00  0.00    +0.000 A 
ATOM     26  C23 UNL     1      58.601  52.409  60.837  0.00  0.00    +0.000 A 
ATOM     27  C24 UNL     1      59.059  51.281  60.132  0.00  0.00    +0.000 A 
ATOM     28  C25 UNL     1      59.327  50.071  60.811  0.00  0.00    +0.000 A 
ATOM     29  C26 UNL     1      59.145  49.977  62.204  0.00  0.00    +0.000 A 
ATOM     30  C27 UNL     1      58.660  51.098  62.877  0.00  0.00    +0.000 A 
ATOM     31  N1  UNL     1      58.566  51.262  64.215  0.00  0.00    +0.000 N 
ATOM     32  H33 UNL     1      58.908  50.603  64.948  0.00  0.00    +0.000 HD
ENDROOT
BRANCH  23  33
ATOM     33  O4  UNL     1      60.631  54.493  70.024  0.00  0.00    +0.000 OA
ATOM     34  H26 UNL     1      60.799  54.922  70.904  0.00  0.00    +0.000 HD
ENDBRANCH  23  33
BRANCH  24  35
ATOM     35  O5  UNL     1      61.593  56.891  69.793  0.00  0.00    +0.000 OA
ATOM     36  H28 UNL     1      62.080  57.524  69.204  0.00  0.00    +0.000 HD
ENDBRANCH  24  35
TORSDOF 2
ENDMDL
MODEL 9
REMARK VINA RESULT:    -6.885      4.039      7.990
REMARK INTER + INTRA:          -7.287
REMARK INTER:                  -7.287
REMARK INTRA:                   0.000
REMARK UNBOUND:                 0.000
REMARK  Name = CNP0071339_1.pdb
REMARK  6 active torsions:
REMARK  status: ('A' for Active; 'I' for Inactive)
REMARK    1  A    between atoms: C1_1  and  C2_2
REMARK    2  A    between atoms: C2_2  and  C3_3
REMARK    3  A    between atoms: C9_11  and  C10_12
REMARK    4  A    between atoms: C11_13  and  C12_14
REMARK    5  A    between atoms: C20_23  and  O4_24
REMARK    6  A    between atoms: C21_25  and  O5_26
REMARK                            x       y       z     vdW  Elec       q    Type
REMARK                         _______ _______ _______ _____ _____    ______ ____
ROOT
ATOM      1  C1  UNL     1      58.881  59.412  69.069  0.00  0.00    +0.000 C 
ATOM      2  C2  UNL     1      59.305  57.973  68.725  0.00  0.00    +0.000 C 
ATOM      3  C3  UNL     1      59.923  57.964  67.307  0.00  0.00    +0.000 C 
ATOM      4  O1  UNL     1      60.280  57.549  69.654  0.00  0.00    +0.000 OA
ATOM      5  C4  UNL     1      60.182  56.141  69.715  0.00  0.00    +0.000 C 
ATOM      6  C5  UNL     1      60.436  55.617  71.114  0.00  0.00    +0.000 C 
ATOM      7  C6  UNL     1      61.127  54.260  70.998  0.00  0.00    +0.000 C 
ATOM      8  O2  UNL     1      62.278  54.234  70.583  0.00  0.00    +0.000 OA
ATOM      9  C7  UNL     1      60.495  52.943  71.391  0.00  0.00    +0.000 C 
ATOM     10  C8  UNL     1      59.101  53.055  72.032  0.00  0.00    +0.000 C 
ATOM     11  C9  UNL     1      58.876  54.386  72.802  0.00  0.00    +0.000 C 
ATOM     12  C10 UNL     1      59.974  54.479  73.925  0.00  0.00    +0.000 C 
ATOM     13  C11 UNL     1      57.425  54.442  73.467  0.00  0.00    +0.000 C 
ATOM     14  C12 UNL     1      56.256  54.068  72.492  0.00  0.00    +0.000 C 
ATOM     15  C13 UNL     1      57.169  53.640  74.712  0.00  0.00    +0.000 A 
ATOM     16  C14 UNL     1      56.361  54.340  75.571  0.00  0.00    +0.000 A 
ATOM     17  C15 UNL     1      56.073  55.730  75.110  0.00  0.00    +0.000 C 
ATOM     18  C16 UNL     1      57.220  55.859  74.093  0.00  0.00    +0.000 C 
ATOM     19  C17 UNL     1      57.242  56.968  73.050  0.00  0.00    +0.000 C 
ATOM     20  C18 UNL     1      58.637  56.953  72.377  0.00  0.00    +0.000 C 
ATOM     21  C19 UNL     1      59.019  55.568  71.739  0.00  0.00    +0.000 C 
ATOM     22  O3  UNL     1      58.129  55.358  70.654  0.00  0.00    +0.000 OA
ATOM     23  C20 UNL     1      58.752  55.739  69.440  0.00  0.00    +0.000 C 
ATOM     24  C21 UNL     1      58.113  57.001  68.863  0.00  0.00    +0.000 C 
ATOM     25  C22 UNL     1      55.641  53.410  76.278  0.00  0.00    +0.000 A 
ATOM     26  C23 UNL     1      54.565  53.548  77.150  0.00  0.00    +0.000 A 
ATOM     27  C24 UNL     1      53.950  52.373  77.617  0.00  0.00    +0.000 A 
ATOM     28  C25 UNL     1      54.393  51.106  77.173  0.00  0.00    +0.000 A 
ATOM     29  C26 UNL     1      55.453  51.002  76.251  0.00  0.00    +0.000 A 
ATOM     30  C27 UNL     1      56.069  52.179  75.827  0.00  0.00    +0.000 A 
ATOM     31  N1  UNL     1      56.985  52.305  74.842  0.00  0.00    +0.000 N 
ATOM     32  H33 UNL     1      57.318  51.550  74.203  0.00  0.00    +0.000 HD
ENDROOT
BRANCH  23  33
ATOM     33  O4  UNL     1      58.725  54.666  68.529  0.00  0.00    +0.000 OA
ATOM     34  H26 UNL     1      59.063  53.867  69.014  0.00  0.00    +0.000 HD
ENDBRANCH  23  33
BRANCH  24  35
ATOM     35  O5  UNL     1      57.471  56.753  67.635  0.00  0.00    +0.000 OA
ATOM     36  H28 UNL     1      56.667  57.333  67.616  0.00  0.00    +0.000 HD
ENDBRANCH  24  35
TORSDOF 2
ENDMDL
MODEL 10
REMARK VINA RESULT:    -6.810      5.065      7.524
REMARK INTER + INTRA:          -7.208
REMARK INTER:                  -7.208
REMARK INTRA:                   0.000
REMARK UNBOUND:                 0.000
REMARK  Name = CNP0071339_1.pdb
REMARK  6 active torsions:
REMARK  status: ('A' for Active; 'I' for Inactive)
REMARK    1  A    between atoms: C1_1  and  C2_2
REMARK    2  A    between atoms: C2_2  and  C3_3
REMARK    3  A    between atoms: C9_11  and  C10_12
REMARK    4  A    between atoms: C11_13  and  C12_14
REMARK    5  A    between atoms: C20_23  and  O4_24
REMARK    6  A    between atoms: C21_25  and  O5_26
REMARK                            x       y       z     vdW  Elec       q    Type
REMARK                         _______ _______ _______ _____ _____    ______ ____
ROOT
ATOM      1  C1  UNL     1      65.539  50.528  74.987  0.00  0.00    +0.000 C 
ATOM      2  C2  UNL     1      64.288  49.996  74.266  0.00  0.00    +0.000 C 
ATOM      3  C3  UNL     1      64.349  48.451  74.243  0.00  0.00    +0.000 C 
ATOM      4  O1  UNL     1      63.140  50.400  74.984  0.00  0.00    +0.000 OA
ATOM      5  C4  UNL     1      62.087  50.459  74.044  0.00  0.00    +0.000 C 
ATOM      6  C5  UNL     1      61.128  51.595  74.341  0.00  0.00    +0.000 C 
ATOM      7  C6  UNL     1      59.725  51.154  73.933  0.00  0.00    +0.000 C 
ATOM      8  O2  UNL     1      59.180  50.281  74.595  0.00  0.00    +0.000 OA
ATOM      9  C7  UNL     1      58.944  51.746  72.781  0.00  0.00    +0.000 C 
ATOM     10  C8  UNL     1      59.625  52.931  72.073  0.00  0.00    +0.000 C 
ATOM     11  C9  UNL     1      60.556  53.757  73.003  0.00  0.00    +0.000 C 
ATOM     12  C10 UNL     1      59.684  54.296  74.195  0.00  0.00    +0.000 C 
ATOM     13  C11 UNL     1      61.219  54.987  72.227  0.00  0.00    +0.000 C 
ATOM     14  C12 UNL     1      61.870  54.605  70.853  0.00  0.00    +0.000 C 
ATOM     15  C13 UNL     1      60.376  56.198  71.938  0.00  0.00    +0.000 A 
ATOM     16  C14 UNL     1      61.119  57.340  72.086  0.00  0.00    +0.000 A 
ATOM     17  C15 UNL     1      62.493  57.088  72.614  0.00  0.00    +0.000 C 
ATOM     18  C16 UNL     1      62.247  55.678  73.178  0.00  0.00    +0.000 C 
ATOM     19  C17 UNL     1      63.399  54.759  73.561  0.00  0.00    +0.000 C 
ATOM     20  C18 UNL     1      62.803  53.548  74.321  0.00  0.00    +0.000 C 
ATOM     21  C19 UNL     1      61.703  52.770  73.509  0.00  0.00    +0.000 C 
ATOM     22  O3  UNL     1      62.357  52.173  72.401  0.00  0.00    +0.000 OA
ATOM     23  C20 UNL     1      62.659  50.819  72.693  0.00  0.00    +0.000 C 
ATOM     24  C21 UNL     1      64.163  50.611  72.855  0.00  0.00    +0.000 C 
ATOM     25  C22 UNL     1      60.596  58.265  71.217  0.00  0.00    +0.000 A 
ATOM     26  C23 UNL     1      61.051  59.520  70.824  0.00  0.00    +0.000 A 
ATOM     27  C24 UNL     1      60.349  60.176  69.796  0.00  0.00    +0.000 A 
ATOM     28  C25 UNL     1      59.249  59.549  69.166  0.00  0.00    +0.000 A 
ATOM     29  C26 UNL     1      58.845  58.257  69.553  0.00  0.00    +0.000 A 
ATOM     30  C27 UNL     1      59.535  57.639  70.595  0.00  0.00    +0.000 A 
ATOM     31  N1  UNL     1      59.408  56.358  71.006  0.00  0.00    +0.000 N 
ATOM     32  H33 UNL     1      58.823  55.618  70.559  0.00  0.00    +0.000 HD
ENDROOT
BRANCH  23  33
ATOM     33  O4  UNL     1      62.109  49.981  71.704  0.00  0.00    +0.000 OA
ATOM     34  H26 UNL     1      61.587  49.281  72.176  0.00  0.00    +0.000 HD
ENDBRANCH  23  33
BRANCH  24  35
ATOM     35  O5  UNL     1      64.690  49.776  71.852  0.00  0.00    +0.000 OA
ATOM     36  H28 UNL     1      63.950  49.599  71.216  0.00  0.00    +0.000 HD
ENDBRANCH  24  35
TORSDOF 2
ENDMDL
