MODEL 1
REMARK VINA RESULT:    -7.412      0.000      0.000
REMARK INTER + INTRA:          -9.099
REMARK INTER:                  -8.278
REMARK INTRA:                  -0.821
REMARK UNBOUND:                -0.821
REMARK  Name = CNP0131131_0.pdb
REMARK  4 active torsions:
REMARK  status: ('A' for Active; 'I' for Inactive)
REMARK    1  A    between atoms: C1_1  and  N1_2
REMARK    2  A    between atoms: N1_2  and  C2_3
REMARK    3  A    between atoms: C6_9  and  C7_10
REMARK    4  A    between atoms: C7_10  and  C8_12
REMARK                            x       y       z     vdW  Elec       q    Type
REMARK                         _______ _______ _______ _____ _____    ______ ____
ROOT
ATOM      1  C1  UNL     1      19.649  31.458  34.858  0.00  0.00    +0.000 C 
ATOM      2  N1  UNL     1      19.291  32.870  34.702  0.00  0.00    +0.000 N 
ATOM      3  C2  UNL     1      18.277  33.279  33.726  0.00  0.00    +0.000 C 
ATOM      4  C3  UNL     1      19.935  33.873  35.510  0.00  0.00    +0.000 A 
ATOM      5  N2  UNL     1      19.643  35.199  35.403  0.00  0.00    +0.000 NA
ATOM      6  C4  UNL     1      20.465  35.746  36.315  0.00  0.00    +0.000 A 
ATOM      7  C5  UNL     1      21.215  34.791  36.943  0.00  0.00    +0.000 A 
ATOM      8  N3  UNL     1      20.892  33.592  36.435  0.00  0.00    +0.000 N 
ATOM      9  C6  UNL     1      22.178  35.133  37.928  0.00  0.00    +0.000 A 
ATOM     10  N5  UNL     1      22.332  36.466  38.238  0.00  0.00    +0.000 NA
ATOM     11  C16 UNL     1      21.577  37.410  37.602  0.00  0.00    +0.000 A 
ATOM     12  C17 UNL     1      20.641  37.078  36.644  0.00  0.00    +0.000 A 
ATOM     13  C18 UNL     1      20.086  38.261  36.220  0.00  0.00    +0.000 A 
ATOM     14  C19 UNL     1      19.103  38.546  35.276  0.00  0.00    +0.000 A 
ATOM     15  C20 UNL     1      18.761  39.897  35.081  0.00  0.00    +0.000 A 
ATOM     16  C21 UNL     1      19.400  40.916  35.824  0.00  0.00    +0.000 A 
ATOM     17  C22 UNL     1      20.391  40.597  36.772  0.00  0.00    +0.000 A 
ATOM     18  C23 UNL     1      20.716  39.253  36.951  0.00  0.00    +0.000 A 
ATOM     19  N6  UNL     1      21.635  38.743  37.805  0.00  0.00    +0.000 N 
ATOM     20  H7  UNL     1      21.295  32.661  36.674  0.00  0.00    +0.000 HD
ATOM     21  H18 UNL     1      22.252  39.262  38.468  0.00  0.00    +0.000 HD
ENDROOT
BRANCH   9  22
ATOM     22  C7  UNL     1      22.979  34.118  38.645  0.00  0.00    +0.000 C 
ATOM     23  O1  UNL     1      23.237  33.021  38.081  0.00  0.00    +0.000 OA
BRANCH  22  24
ATOM     24  C8  UNL     1      23.467  34.353  40.021  0.00  0.00    +0.000 A 
ATOM     25  C9  UNL     1      22.783  34.087  41.207  0.00  0.00    +0.000 A 
ATOM     26  N4  UNL     1      23.516  34.469  42.277  0.00  0.00    +0.000 N 
ATOM     27  C10 UNL     1      24.656  34.980  41.784  0.00  0.00    +0.000 A 
ATOM     28  C11 UNL     1      25.724  35.506  42.510  0.00  0.00    +0.000 A 
ATOM     29  C12 UNL     1      26.831  35.990  41.793  0.00  0.00    +0.000 A 
ATOM     30  C13 UNL     1      26.849  35.937  40.382  0.00  0.00    +0.000 A 
ATOM     31  C14 UNL     1      25.757  35.402  39.675  0.00  0.00    +0.000 A 
ATOM     32  C15 UNL     1      24.666  34.932  40.411  0.00  0.00    +0.000 A 
ATOM     33  H9  UNL     1      23.242  34.390  43.281  0.00  0.00    +0.000 HD
ENDBRANCH  22  24
ENDBRANCH   9  22
TORSDOF 2
ENDMDL
MODEL 2
REMARK VINA RESULT:    -7.326      6.182     10.554
REMARK INTER + INTRA:          -9.003
REMARK INTER:                  -8.457
REMARK INTRA:                  -0.545
REMARK UNBOUND:                -0.821
REMARK  Name = CNP0131131_0.pdb
REMARK  4 active torsions:
REMARK  status: ('A' for Active; 'I' for Inactive)
REMARK    1  A    between atoms: C1_1  and  N1_2
REMARK    2  A    between atoms: N1_2  and  C2_3
REMARK    3  A    between atoms: C6_9  and  C7_10
REMARK    4  A    between atoms: C7_10  and  C8_12
REMARK                            x       y       z     vdW  Elec       q    Type
REMARK                         _______ _______ _______ _____ _____    ______ ____
ROOT
ATOM      1  C1  UNL     1      32.900  38.797  42.644  0.00  0.00    +0.000 C 
ATOM      2  N1  UNL     1      31.579  38.201  42.859  0.00  0.00    +0.000 N 
ATOM      3  C2  UNL     1      31.072  37.982  44.217  0.00  0.00    +0.000 C 
ATOM      4  C3  UNL     1      30.762  37.827  41.734  0.00  0.00    +0.000 A 
ATOM      5  N2  UNL     1      29.529  37.266  41.877  0.00  0.00    +0.000 NA
ATOM      6  C4  UNL     1      29.150  37.080  40.601  0.00  0.00    +0.000 A 
ATOM      7  C5  UNL     1      30.112  37.512  39.731  0.00  0.00    +0.000 A 
ATOM      8  N3  UNL     1      31.148  37.984  40.440  0.00  0.00    +0.000 N 
ATOM      9  C6  UNL     1      29.949  37.391  38.326  0.00  0.00    +0.000 A 
ATOM     10  N5  UNL     1      28.782  36.826  37.862  0.00  0.00    +0.000 NA
ATOM     11  C16 UNL     1      27.830  36.398  38.743  0.00  0.00    +0.000 A 
ATOM     12  C17 UNL     1      27.989  36.514  40.109  0.00  0.00    +0.000 A 
ATOM     13  C18 UNL     1      26.856  35.982  40.676  0.00  0.00    +0.000 A 
ATOM     14  C19 UNL     1      26.460  35.825  42.001  0.00  0.00    +0.000 A 
ATOM     15  C20 UNL     1      25.209  35.226  42.240  0.00  0.00    +0.000 A 
ATOM     16  C21 UNL     1      24.396  34.805  41.163  0.00  0.00    +0.000 A 
ATOM     17  C22 UNL     1      24.823  34.976  39.833  0.00  0.00    +0.000 A 
ATOM     18  C23 UNL     1      26.064  35.572  39.617  0.00  0.00    +0.000 A 
ATOM     19  N6  UNL     1      26.652  35.822  38.423  0.00  0.00    +0.000 N 
ATOM     20  H7  UNL     1      32.052  38.365  40.084  0.00  0.00    +0.000 HD
ATOM     21  H18 UNL     1      26.282  35.614  37.469  0.00  0.00    +0.000 HD
ENDROOT
BRANCH   9  22
ATOM     22  C7  UNL     1      30.960  37.878  37.362  0.00  0.00    +0.000 C 
ATOM     23  O1  UNL     1      31.929  37.136  37.052  0.00  0.00    +0.000 OA
BRANCH  22  24
ATOM     24  C8  UNL     1      30.869  39.231  36.770  0.00  0.00    +0.000 A 
ATOM     25  C9  UNL     1      30.561  40.417  37.437  0.00  0.00    +0.000 A 
ATOM     26  N4  UNL     1      30.524  41.455  36.573  0.00  0.00    +0.000 N 
ATOM     27  C10 UNL     1      30.799  40.942  35.363  0.00  0.00    +0.000 A 
ATOM     28  C11 UNL     1      30.872  41.634  34.154  0.00  0.00    +0.000 A 
ATOM     29  C12 UNL     1      31.179  40.901  32.995  0.00  0.00    +0.000 A 
ATOM     30  C13 UNL     1      31.406  39.509  33.067  0.00  0.00    +0.000 A 
ATOM     31  C14 UNL     1      31.325  38.837  34.300  0.00  0.00    +0.000 A 
ATOM     32  C15 UNL     1      31.013  39.588  35.437  0.00  0.00    +0.000 A 
ATOM     33  H9  UNL     1      30.313  42.451  36.803  0.00  0.00    +0.000 HD
ENDBRANCH  22  24
ENDBRANCH   9  22
TORSDOF 2
ENDMDL
MODEL 3
REMARK VINA RESULT:    -7.274      6.009      9.050
REMARK INTER + INTRA:          -8.945
REMARK INTER:                  -8.283
REMARK INTRA:                  -0.662
REMARK UNBOUND:                -0.821
REMARK  Name = CNP0131131_0.pdb
REMARK  4 active torsions:
REMARK  status: ('A' for Active; 'I' for Inactive)
REMARK    1  A    between atoms: C1_1  and  N1_2
REMARK    2  A    between atoms: N1_2  and  C2_3
REMARK    3  A    between atoms: C6_9  and  C7_10
REMARK    4  A    between atoms: C7_10  and  C8_12
REMARK                            x       y       z     vdW  Elec       q    Type
REMARK                         _______ _______ _______ _____ _____    ______ ____
ROOT
ATOM      1  C1  UNL     1      28.162  36.372  33.318  0.00  0.00    +0.000 C 
ATOM      2  N1  UNL     1      27.346  35.921  34.448  0.00  0.00    +0.000 N 
ATOM      3  C2  UNL     1      26.129  35.137  34.223  0.00  0.00    +0.000 C 
ATOM      4  C3  UNL     1      27.735  36.244  35.796  0.00  0.00    +0.000 A 
ATOM      5  N2  UNL     1      27.012  35.854  36.882  0.00  0.00    +0.000 NA
ATOM      6  C4  UNL     1      27.722  36.370  37.899  0.00  0.00    +0.000 A 
ATOM      7  C5  UNL     1      28.825  37.039  37.444  0.00  0.00    +0.000 A 
ATOM      8  N3  UNL     1      28.842  36.972  36.104  0.00  0.00    +0.000 N 
ATOM      9  C6  UNL     1      29.714  37.694  38.335  0.00  0.00    +0.000 A 
ATOM     10  N5  UNL     1      29.434  37.633  39.682  0.00  0.00    +0.000 NA
ATOM     11  C16 UNL     1      28.329  36.962  40.123  0.00  0.00    +0.000 A 
ATOM     12  C17 UNL     1      27.464  36.325  39.256  0.00  0.00    +0.000 A 
ATOM     13  C18 UNL     1      26.476  35.771  40.035  0.00  0.00    +0.000 A 
ATOM     14  C19 UNL     1      25.346  35.023  39.719  0.00  0.00    +0.000 A 
ATOM     15  C20 UNL     1      24.525  34.602  40.781  0.00  0.00    +0.000 A 
ATOM     16  C21 UNL     1      24.849  34.936  42.116  0.00  0.00    +0.000 A 
ATOM     17  C22 UNL     1      25.999  35.694  42.406  0.00  0.00    +0.000 A 
ATOM     18  C23 UNL     1      26.800  36.101  41.340  0.00  0.00    +0.000 A 
ATOM     19  N6  UNL     1      27.937  36.833  41.407  0.00  0.00    +0.000 N 
ATOM     20  H7  UNL     1      29.531  37.398  35.447  0.00  0.00    +0.000 HD
ATOM     21  H18 UNL     1      28.405  37.216  42.259  0.00  0.00    +0.000 HD
ENDROOT
BRANCH   9  22
ATOM     22  C7  UNL     1      30.930  38.398  37.872  0.00  0.00    +0.000 C 
ATOM     23  O1  UNL     1      32.063  37.963  38.208  0.00  0.00    +0.000 OA
BRANCH  22  24
ATOM     24  C8  UNL     1      30.844  39.617  37.038  0.00  0.00    +0.000 A 
ATOM     25  C9  UNL     1      30.482  40.895  37.462  0.00  0.00    +0.000 A 
ATOM     26  N4  UNL     1      30.469  41.758  36.421  0.00  0.00    +0.000 N 
ATOM     27  C10 UNL     1      30.812  41.040  35.339  0.00  0.00    +0.000 A 
ATOM     28  C11 UNL     1      30.932  41.501  34.028  0.00  0.00    +0.000 A 
ATOM     29  C12 UNL     1      31.309  40.577  33.038  0.00  0.00    +0.000 A 
ATOM     30  C13 UNL     1      31.557  39.229  33.375  0.00  0.00    +0.000 A 
ATOM     31  C14 UNL     1      31.428  38.790  34.705  0.00  0.00    +0.000 A 
ATOM     32  C15 UNL     1      31.047  39.728  35.670  0.00  0.00    +0.000 A 
ATOM     33  H9  UNL     1      30.229  42.772  36.454  0.00  0.00    +0.000 HD
ENDBRANCH  22  24
ENDBRANCH   9  22
TORSDOF 2
ENDMDL
MODEL 4
REMARK VINA RESULT:    -7.197      5.053      8.238
REMARK INTER + INTRA:          -8.858
REMARK INTER:                  -8.006
REMARK INTRA:                  -0.852
REMARK UNBOUND:                -0.821
REMARK  Name = CNP0131131_0.pdb
REMARK  4 active torsions:
REMARK  status: ('A' for Active; 'I' for Inactive)
REMARK    1  A    between atoms: C1_1  and  N1_2
REMARK    2  A    between atoms: N1_2  and  C2_3
REMARK    3  A    between atoms: C6_9  and  C7_10
REMARK    4  A    between atoms: C7_10  and  C8_12
REMARK                            x       y       z     vdW  Elec       q    Type
REMARK                         _______ _______ _______ _____ _____    ______ ____
ROOT
ATOM      1  C1  UNL     1      17.683  36.710  30.804  0.00  0.00    +0.000 C 
ATOM      2  N1  UNL     1      17.858  36.535  32.248  0.00  0.00    +0.000 N 
ATOM      3  C2  UNL     1      17.520  35.263  32.892  0.00  0.00    +0.000 C 
ATOM      4  C3  UNL     1      18.369  37.616  33.051  0.00  0.00    +0.000 A 
ATOM      5  N2  UNL     1      18.547  37.509  34.397  0.00  0.00    +0.000 NA
ATOM      6  C4  UNL     1      19.018  38.725  34.720  0.00  0.00    +0.000 A 
ATOM      7  C5  UNL     1      19.120  39.526  33.617  0.00  0.00    +0.000 A 
ATOM      8  N3  UNL     1      18.703  38.834  32.546  0.00  0.00    +0.000 N 
ATOM      9  C6  UNL     1      19.568  40.869  33.715  0.00  0.00    +0.000 A 
ATOM     10  N5  UNL     1      19.904  41.344  34.964  0.00  0.00    +0.000 NA
ATOM     11  C16 UNL     1      19.797  40.533  36.057  0.00  0.00    +0.000 A 
ATOM     12  C17 UNL     1      19.361  39.227  35.962  0.00  0.00    +0.000 A 
ATOM     13  C18 UNL     1      19.371  38.723  37.240  0.00  0.00    +0.000 A 
ATOM     14  C19 UNL     1      19.032  37.475  37.755  0.00  0.00    +0.000 A 
ATOM     15  C20 UNL     1      19.159  37.286  39.143  0.00  0.00    +0.000 A 
ATOM     16  C21 UNL     1      19.616  38.337  39.972  0.00  0.00    +0.000 A 
ATOM     17  C22 UNL     1      19.951  39.589  39.424  0.00  0.00    +0.000 A 
ATOM     18  C23 UNL     1      19.818  39.755  38.047  0.00  0.00    +0.000 A 
ATOM     19  N6  UNL     1      20.084  40.874  37.331  0.00  0.00    +0.000 N 
ATOM     20  H7  UNL     1      18.629  39.158  31.558  0.00  0.00    +0.000 HD
ATOM     21  H18 UNL     1      20.430  41.794  37.683  0.00  0.00    +0.000 HD
ENDROOT
BRANCH   9  22
ATOM     22  C7  UNL     1      19.717  41.747  32.534  0.00  0.00    +0.000 C 
ATOM     23  O1  UNL     1      19.097  41.469  31.473  0.00  0.00    +0.000 OA
BRANCH  22  24
ATOM     24  C8  UNL     1      20.598  42.935  32.564  0.00  0.00    +0.000 A 
ATOM     25  C9  UNL     1      20.199  44.271  32.600  0.00  0.00    +0.000 A 
ATOM     26  N4  UNL     1      21.273  45.092  32.576  0.00  0.00    +0.000 N 
ATOM     27  C10 UNL     1      22.351  44.292  32.521  0.00  0.00    +0.000 A 
ATOM     28  C11 UNL     1      23.688  44.686  32.478  0.00  0.00    +0.000 A 
ATOM     29  C12 UNL     1      24.668  43.680  32.425  0.00  0.00    +0.000 A 
ATOM     30  C13 UNL     1      24.296  42.319  32.419  0.00  0.00    +0.000 A 
ATOM     31  C14 UNL     1      22.940  41.949  32.462  0.00  0.00    +0.000 A 
ATOM     32  C15 UNL     1      21.984  42.969  32.509  0.00  0.00    +0.000 A 
ATOM     33  H9  UNL     1      21.261  46.135  32.588  0.00  0.00    +0.000 HD
ENDBRANCH  22  24
ENDBRANCH   9  22
TORSDOF 2
ENDMDL
MODEL 5
REMARK VINA RESULT:    -7.142      4.955      8.338
REMARK INTER + INTRA:          -8.798
REMARK INTER:                  -8.021
REMARK INTRA:                  -0.776
REMARK UNBOUND:                -0.821
REMARK  Name = CNP0131131_0.pdb
REMARK  4 active torsions:
REMARK  status: ('A' for Active; 'I' for Inactive)
REMARK    1  A    between atoms: C1_1  and  N1_2
REMARK    2  A    between atoms: N1_2  and  C2_3
REMARK    3  A    between atoms: C6_9  and  C7_10
REMARK    4  A    between atoms: C7_10  and  C8_12
REMARK                            x       y       z     vdW  Elec       q    Type
REMARK                         _______ _______ _______ _____ _____    ______ ____
ROOT
ATOM      1  C1  UNL     1      24.348  43.532  32.426  0.00  0.00    +0.000 C 
ATOM      2  N1  UNL     1      23.026  44.044  32.056  0.00  0.00    +0.000 N 
ATOM      3  C2  UNL     1      22.897  45.251  31.235  0.00  0.00    +0.000 C 
ATOM      4  C3  UNL     1      21.836  43.361  32.495  0.00  0.00    +0.000 A 
ATOM      5  N2  UNL     1      20.584  43.795  32.183  0.00  0.00    +0.000 NA
ATOM      6  C4  UNL     1      19.806  42.886  32.793  0.00  0.00    +0.000 A 
ATOM      7  C5  UNL     1      20.558  41.945  33.441  0.00  0.00    +0.000 A 
ATOM      8  N3  UNL     1      21.854  42.240  33.264  0.00  0.00    +0.000 N 
ATOM      9  C6  UNL     1      19.954  40.896  34.182  0.00  0.00    +0.000 A 
ATOM     10  N5  UNL     1      18.579  40.851  34.227  0.00  0.00    +0.000 NA
ATOM     11  C16 UNL     1      17.840  41.797  33.576  0.00  0.00    +0.000 A 
ATOM     12  C17 UNL     1      18.426  42.818  32.856  0.00  0.00    +0.000 A 
ATOM     13  C18 UNL     1      17.396  43.574  32.351  0.00  0.00    +0.000 A 
ATOM     14  C19 UNL     1      17.379  44.720  31.560  0.00  0.00    +0.000 A 
ATOM     15  C20 UNL     1      16.124  45.254  31.214  0.00  0.00    +0.000 A 
ATOM     16  C21 UNL     1      14.933  44.638  31.662  0.00  0.00    +0.000 A 
ATOM     17  C22 UNL     1      14.981  43.480  32.461  0.00  0.00    +0.000 A 
ATOM     18  C23 UNL     1      16.234  42.967  32.792  0.00  0.00    +0.000 A 
ATOM     19  N6  UNL     1      16.493  41.872  33.547  0.00  0.00    +0.000 N 
ATOM     20  H7  UNL     1      22.687  41.740  33.646  0.00  0.00    +0.000 HD
ATOM     21  H18 UNL     1      15.808  41.232  34.006  0.00  0.00    +0.000 HD
ENDROOT
BRANCH   9  22
ATOM     22  C7  UNL     1      20.744  39.849  34.866  0.00  0.00    +0.000 C 
ATOM     23  O1  UNL     1      21.973  39.736  34.615  0.00  0.00    +0.000 OA
BRANCH  22  24
ATOM     24  C8  UNL     1      20.115  38.913  35.824  0.00  0.00    +0.000 A 
ATOM     25  C9  UNL     1      19.460  37.720  35.520  0.00  0.00    +0.000 A 
ATOM     26  N4  UNL     1      18.971  37.144  36.641  0.00  0.00    +0.000 N 
ATOM     27  C10 UNL     1      19.302  37.962  37.654  0.00  0.00    +0.000 A 
ATOM     28  C11 UNL     1      19.010  37.785  39.006  0.00  0.00    +0.000 A 
ATOM     29  C12 UNL     1      19.455  38.766  39.908  0.00  0.00    +0.000 A 
ATOM     30  C13 UNL     1      20.177  39.888  39.447  0.00  0.00    +0.000 A 
ATOM     31  C14 UNL     1      20.458  40.042  38.077  0.00  0.00    +0.000 A 
ATOM     32  C15 UNL     1      19.999  39.055  37.199  0.00  0.00    +0.000 A 
ATOM     33  H9  UNL     1      18.435  36.251  36.701  0.00  0.00    +0.000 HD
ENDBRANCH  22  24
ENDBRANCH   9  22
TORSDOF 2
ENDMDL
MODEL 6
REMARK VINA RESULT:    -7.067      3.470      5.684
REMARK INTER + INTRA:          -8.714
REMARK INTER:                  -7.891
REMARK INTRA:                  -0.823
REMARK UNBOUND:                -0.821
REMARK  Name = CNP0131131_0.pdb
REMARK  4 active torsions:
REMARK  status: ('A' for Active; 'I' for Inactive)
REMARK    1  A    between atoms: C1_1  and  N1_2
REMARK    2  A    between atoms: N1_2  and  C2_3
REMARK    3  A    between atoms: C6_9  and  C7_10
REMARK    4  A    between atoms: C7_10  and  C8_12
REMARK                            x       y       z     vdW  Elec       q    Type
REMARK                         _______ _______ _______ _____ _____    ______ ____
ROOT
ATOM      1  C1  UNL     1      21.800  34.863  32.505  0.00  0.00    +0.000 C 
ATOM      2  N1  UNL     1      21.481  36.078  33.258  0.00  0.00    +0.000 N 
ATOM      3  C2  UNL     1      21.496  37.389  32.602  0.00  0.00    +0.000 C 
ATOM      4  C3  UNL     1      21.145  35.996  34.656  0.00  0.00    +0.000 A 
ATOM      5  N2  UNL     1      20.844  37.093  35.404  0.00  0.00    +0.000 NA
ATOM      6  C4  UNL     1      20.613  36.559  36.615  0.00  0.00    +0.000 A 
ATOM      7  C5  UNL     1      20.765  35.200  36.594  0.00  0.00    +0.000 A 
ATOM      8  N3  UNL     1      21.111  34.828  35.353  0.00  0.00    +0.000 N 
ATOM      9  C6  UNL     1      20.600  34.418  37.767  0.00  0.00    +0.000 A 
ATOM     10  N5  UNL     1      20.273  35.072  38.934  0.00  0.00    +0.000 NA
ATOM     11  C16 UNL     1      20.125  36.430  38.941  0.00  0.00    +0.000 A 
ATOM     12  C17 UNL     1      20.286  37.191  37.801  0.00  0.00    +0.000 A 
ATOM     13  C18 UNL     1      20.072  38.496  38.175  0.00  0.00    +0.000 A 
ATOM     14  C19 UNL     1      20.104  39.690  37.459  0.00  0.00    +0.000 A 
ATOM     15  C20 UNL     1      19.833  40.877  38.163  0.00  0.00    +0.000 A 
ATOM     16  C21 UNL     1      19.541  40.843  39.546  0.00  0.00    +0.000 A 
ATOM     17  C22 UNL     1      19.517  39.621  40.244  0.00  0.00    +0.000 A 
ATOM     18  C23 UNL     1      19.788  38.455  39.529  0.00  0.00    +0.000 A 
ATOM     19  N6  UNL     1      19.816  37.190  40.011  0.00  0.00    +0.000 N 
ATOM     20  H7  UNL     1      21.328  33.869  35.004  0.00  0.00    +0.000 HD
ATOM     21  H18 UNL     1      19.643  36.873  40.991  0.00  0.00    +0.000 HD
ENDROOT
BRANCH   9  22
ATOM     22  C7  UNL     1      20.728  32.944  37.765  0.00  0.00    +0.000 C 
ATOM     23  O1  UNL     1      21.873  32.422  37.711  0.00  0.00    +0.000 OA
BRANCH  22  24
ATOM     24  C8  UNL     1      19.537  32.068  37.805  0.00  0.00    +0.000 A 
ATOM     25  C9  UNL     1      19.105  31.292  38.880  0.00  0.00    +0.000 A 
ATOM     26  N4  UNL     1      18.003  30.584  38.547  0.00  0.00    +0.000 N 
ATOM     27  C10 UNL     1      17.733  30.896  37.269  0.00  0.00    +0.000 A 
ATOM     28  C11 UNL     1      16.685  30.409  36.488  0.00  0.00    +0.000 A 
ATOM     29  C12 UNL     1      16.581  30.871  35.165  0.00  0.00    +0.000 A 
ATOM     30  C13 UNL     1      17.513  31.801  34.657  0.00  0.00    +0.000 A 
ATOM     31  C14 UNL     1      18.561  32.276  35.466  0.00  0.00    +0.000 A 
ATOM     32  C15 UNL     1      18.646  31.796  36.777  0.00  0.00    +0.000 A 
ATOM     33  H9  UNL     1      17.479  29.921  39.158  0.00  0.00    +0.000 HD
ENDBRANCH  22  24
ENDBRANCH   9  22
TORSDOF 2
ENDMDL
MODEL 7
REMARK VINA RESULT:    -7.063      3.439      7.813
REMARK INTER + INTRA:          -8.709
REMARK INTER:                  -8.220
REMARK INTRA:                  -0.489
REMARK UNBOUND:                -0.821
REMARK  Name = CNP0131131_0.pdb
REMARK  4 active torsions:
REMARK  status: ('A' for Active; 'I' for Inactive)
REMARK    1  A    between atoms: C1_1  and  N1_2
REMARK    2  A    between atoms: N1_2  and  C2_3
REMARK    3  A    between atoms: C6_9  and  C7_10
REMARK    4  A    between atoms: C7_10  and  C8_12
REMARK                            x       y       z     vdW  Elec       q    Type
REMARK                         _______ _______ _______ _____ _____    ______ ____
ROOT
ATOM      1  C1  UNL     1      24.712  38.745  33.647  0.00  0.00    +0.000 C 
ATOM      2  N1  UNL     1      24.647  37.590  34.546  0.00  0.00    +0.000 N 
ATOM      3  C2  UNL     1      25.607  36.491  34.418  0.00  0.00    +0.000 C 
ATOM      4  C3  UNL     1      23.635  37.525  35.569  0.00  0.00    +0.000 A 
ATOM      5  N2  UNL     1      23.528  36.475  36.428  0.00  0.00    +0.000 NA
ATOM      6  C4  UNL     1      22.471  36.827  37.180  0.00  0.00    +0.000 A 
ATOM      7  C5  UNL     1      21.969  38.038  36.791  0.00  0.00    +0.000 A 
ATOM      8  N3  UNL     1      22.698  38.492  35.760  0.00  0.00    +0.000 N 
ATOM      9  C6  UNL     1      20.831  38.605  37.421  0.00  0.00    +0.000 A 
ATOM     10  N5  UNL     1      20.246  37.898  38.448  0.00  0.00    +0.000 NA
ATOM     11  C16 UNL     1      20.758  36.689  38.826  0.00  0.00    +0.000 A 
ATOM     12  C17 UNL     1      21.864  36.137  38.212  0.00  0.00    +0.000 A 
ATOM     13  C18 UNL     1      22.089  34.932  38.834  0.00  0.00    +0.000 A 
ATOM     14  C19 UNL     1      23.052  33.946  38.640  0.00  0.00    +0.000 A 
ATOM     15  C20 UNL     1      22.996  32.809  39.468  0.00  0.00    +0.000 A 
ATOM     16  C21 UNL     1      21.992  32.688  40.456  0.00  0.00    +0.000 A 
ATOM     17  C22 UNL     1      21.031  33.702  40.629  0.00  0.00    +0.000 A 
ATOM     18  C23 UNL     1      21.104  34.819  39.800  0.00  0.00    +0.000 A 
ATOM     19  N6  UNL     1      20.279  35.894  39.805  0.00  0.00    +0.000 N 
ATOM     20  H7  UNL     1      22.565  39.370  35.214  0.00  0.00    +0.000 HD
ATOM     21  H18 UNL     1      19.455  36.068  40.423  0.00  0.00    +0.000 HD
ENDROOT
BRANCH   9  22
ATOM     22  C7  UNL     1      20.286  39.927  37.041  0.00  0.00    +0.000 C 
ATOM     23  O1  UNL     1      20.517  40.926  37.772  0.00  0.00    +0.000 OA
BRANCH  22  24
ATOM     24  C8  UNL     1      19.456  40.097  35.828  0.00  0.00    +0.000 A 
ATOM     25  C9  UNL     1      19.238  41.281  35.124  0.00  0.00    +0.000 A 
ATOM     26  N4  UNL     1      18.390  41.074  34.092  0.00  0.00    +0.000 N 
ATOM     27  C10 UNL     1      18.062  39.772  34.136  0.00  0.00    +0.000 A 
ATOM     28  C11 UNL     1      17.207  39.092  33.270  0.00  0.00    +0.000 A 
ATOM     29  C12 UNL     1      17.001  37.719  33.493  0.00  0.00    +0.000 A 
ATOM     30  C13 UNL     1      17.647  37.064  34.563  0.00  0.00    +0.000 A 
ATOM     31  C14 UNL     1      18.504  37.775  35.422  0.00  0.00    +0.000 A 
ATOM     32  C15 UNL     1      18.688  39.140  35.182  0.00  0.00    +0.000 A 
ATOM     33  H9  UNL     1      18.053  41.787  33.409  0.00  0.00    +0.000 HD
ENDBRANCH  22  24
ENDBRANCH   9  22
TORSDOF 2
ENDMDL
MODEL 8
REMARK VINA RESULT:    -7.060      4.533      6.719
REMARK INTER + INTRA:          -8.706
REMARK INTER:                  -8.012
REMARK INTRA:                  -0.694
REMARK UNBOUND:                -0.821
REMARK  Name = CNP0131131_0.pdb
REMARK  4 active torsions:
REMARK  status: ('A' for Active; 'I' for Inactive)
REMARK    1  A    between atoms: C1_1  and  N1_2
REMARK    2  A    between atoms: N1_2  and  C2_3
REMARK    3  A    between atoms: C6_9  and  C7_10
REMARK    4  A    between atoms: C7_10  and  C8_12
REMARK                            x       y       z     vdW  Elec       q    Type
REMARK                         _______ _______ _______ _____ _____    ______ ____
ROOT
ATOM      1  C1  UNL     1      17.665  33.868  32.746  0.00  0.00    +0.000 C 
ATOM      2  N1  UNL     1      16.705  34.872  32.282  0.00  0.00    +0.000 N 
ATOM      3  C2  UNL     1      15.547  34.479  31.474  0.00  0.00    +0.000 C 
ATOM      4  C3  UNL     1      16.889  36.260  32.619  0.00  0.00    +0.000 A 
ATOM      5  N2  UNL     1      16.029  37.234  32.212  0.00  0.00    +0.000 NA
ATOM      6  C4  UNL     1      16.583  38.341  32.734  0.00  0.00    +0.000 A 
ATOM      7  C5  UNL     1      17.724  38.044  33.428  0.00  0.00    +0.000 A 
ATOM      8  N3  UNL     1      17.934  36.721  33.357  0.00  0.00    +0.000 N 
ATOM      9  C6  UNL     1      18.500  39.058  34.046  0.00  0.00    +0.000 A 
ATOM     10  N5  UNL     1      18.066  40.360  33.931  0.00  0.00    +0.000 NA
ATOM     11  C16 UNL     1      16.925  40.642  33.235  0.00  0.00    +0.000 A 
ATOM     12  C17 UNL     1      16.170  39.656  32.632  0.00  0.00    +0.000 A 
ATOM     13  C18 UNL     1      15.115  40.295  32.025  0.00  0.00    +0.000 A 
ATOM     14  C19 UNL     1      14.044  39.821  31.274  0.00  0.00    +0.000 A 
ATOM     15  C20 UNL     1      13.121  40.765  30.787  0.00  0.00    +0.000 A 
ATOM     16  C21 UNL     1      13.290  42.142  31.060  0.00  0.00    +0.000 A 
ATOM     17  C22 UNL     1      14.385  42.593  31.823  0.00  0.00    +0.000 A 
ATOM     18  C23 UNL     1      15.287  41.642  32.296  0.00  0.00    +0.000 A 
ATOM     19  N6  UNL     1      16.396  41.868  33.039  0.00  0.00    +0.000 N 
ATOM     20  H7  UNL     1      18.727  36.172  33.755  0.00  0.00    +0.000 HD
ATOM     21  H18 UNL     1      16.763  42.784  33.382  0.00  0.00    +0.000 HD
ENDROOT
BRANCH   9  22
ATOM     22  C7  UNL     1      19.721  38.761  34.828  0.00  0.00    +0.000 C 
ATOM     23  O1  UNL     1      20.851  38.936  34.302  0.00  0.00    +0.000 OA
BRANCH  22  24
ATOM     24  C8  UNL     1      19.641  38.240  36.211  0.00  0.00    +0.000 A 
ATOM     25  C9  UNL     1      19.466  36.911  36.594  0.00  0.00    +0.000 A 
ATOM     26  N4  UNL     1      19.396  36.807  37.940  0.00  0.00    +0.000 N 
ATOM     27  C10 UNL     1      19.517  38.057  38.416  0.00  0.00    +0.000 A 
ATOM     28  C11 UNL     1      19.502  38.452  39.754  0.00  0.00    +0.000 A 
ATOM     29  C12 UNL     1      19.650  39.820  40.037  0.00  0.00    +0.000 A 
ATOM     30  C13 UNL     1      19.809  40.754  38.991  0.00  0.00    +0.000 A 
ATOM     31  C14 UNL     1      19.819  40.329  37.650  0.00  0.00    +0.000 A 
ATOM     32  C15 UNL     1      19.666  38.963  37.394  0.00  0.00    +0.000 A 
ATOM     33  H9  UNL     1      19.262  35.932  38.492  0.00  0.00    +0.000 HD
ENDBRANCH  22  24
ENDBRANCH   9  22
TORSDOF 2
ENDMDL
MODEL 9
REMARK VINA RESULT:    -6.992      5.045      9.470
REMARK INTER + INTRA:          -8.630
REMARK INTER:                  -7.815
REMARK INTRA:                  -0.814
REMARK UNBOUND:                -0.821
REMARK  Name = CNP0131131_0.pdb
REMARK  4 active torsions:
REMARK  status: ('A' for Active; 'I' for Inactive)
REMARK    1  A    between atoms: C1_1  and  N1_2
REMARK    2  A    between atoms: N1_2  and  C2_3
REMARK    3  A    between atoms: C6_9  and  C7_10
REMARK    4  A    between atoms: C7_10  and  C8_12
REMARK                            x       y       z     vdW  Elec       q    Type
REMARK                         _______ _______ _______ _____ _____    ______ ____
ROOT
ATOM      1  C1  UNL     1      18.172  37.171  30.525  0.00  0.00    +0.000 C 
ATOM      2  N1  UNL     1      18.242  36.896  31.963  0.00  0.00    +0.000 N 
ATOM      3  C2  UNL     1      17.838  35.591  32.493  0.00  0.00    +0.000 C 
ATOM      4  C3  UNL     1      18.713  37.909  32.872  0.00  0.00    +0.000 A 
ATOM      5  N2  UNL     1      18.795  37.708  34.216  0.00  0.00    +0.000 NA
ATOM      6  C4  UNL     1      19.262  38.889  34.654  0.00  0.00    +0.000 A 
ATOM      7  C5  UNL     1      19.455  39.760  33.618  0.00  0.00    +0.000 A 
ATOM      8  N3  UNL     1      19.103  39.150  32.476  0.00  0.00    +0.000 N 
ATOM      9  C6  UNL     1      19.918  41.083  33.838  0.00  0.00    +0.000 A 
ATOM     10  N5  UNL     1      20.174  41.466  35.137  0.00  0.00    +0.000 NA
ATOM     11  C16 UNL     1      19.976  40.586  36.162  0.00  0.00    +0.000 A 
ATOM     12  C17 UNL     1      19.525  39.299  35.948  0.00  0.00    +0.000 A 
ATOM     13  C18 UNL     1      19.436  38.710  37.186  0.00  0.00    +0.000 A 
ATOM     14  C19 UNL     1      19.041  37.438  37.589  0.00  0.00    +0.000 A 
ATOM     15  C20 UNL     1      19.067  37.154  38.967  0.00  0.00    +0.000 A 
ATOM     16  C21 UNL     1      19.482  38.136  39.896  0.00  0.00    +0.000 A 
ATOM     17  C22 UNL     1      19.876  39.415  39.459  0.00  0.00    +0.000 A 
ATOM     18  C23 UNL     1      19.844  39.676  38.090  0.00  0.00    +0.000 A 
ATOM     19  N6  UNL     1      20.178  40.834  37.473  0.00  0.00    +0.000 N 
ATOM     20  H7  UNL     1      19.104  39.542  31.509  0.00  0.00    +0.000 HD
ATOM     21  H18 UNL     1      20.514  41.721  37.910  0.00  0.00    +0.000 HD
ENDROOT
BRANCH   9  22
ATOM     22  C7  UNL     1      20.165  42.035  32.733  0.00  0.00    +0.000 C 
ATOM     23  O1  UNL     1      21.166  41.871  31.986  0.00  0.00    +0.000 OA
BRANCH  22  24
ATOM     24  C8  UNL     1      19.272  43.191  32.499  0.00  0.00    +0.000 A 
ATOM     25  C9  UNL     1      19.475  44.504  32.923  0.00  0.00    +0.000 A 
ATOM     26  N4  UNL     1      18.433  45.288  32.569  0.00  0.00    +0.000 N 
ATOM     27  C10 UNL     1      17.566  44.486  31.928  0.00  0.00    +0.000 A 
ATOM     28  C11 UNL     1      16.336  44.847  31.378  0.00  0.00    +0.000 A 
ATOM     29  C12 UNL     1      15.580  43.846  30.744  0.00  0.00    +0.000 A 
ATOM     30  C13 UNL     1      16.063  42.522  30.673  0.00  0.00    +0.000 A 
ATOM     31  C14 UNL     1      17.307  42.185  31.237  0.00  0.00    +0.000 A 
ATOM     32  C15 UNL     1      18.038  43.198  31.866  0.00  0.00    +0.000 A 
ATOM     33  H9  UNL     1      18.323  46.307  32.764  0.00  0.00    +0.000 HD
ENDBRANCH  22  24
ENDBRANCH   9  22
TORSDOF 2
ENDMDL
MODEL 10
REMARK VINA RESULT:    -6.676      2.337      2.882
REMARK INTER + INTRA:          -8.277
REMARK INTER:                  -7.626
REMARK INTRA:                  -0.650
REMARK UNBOUND:                -0.821
REMARK  Name = CNP0131131_0.pdb
REMARK  4 active torsions:
REMARK  status: ('A' for Active; 'I' for Inactive)
REMARK    1  A    between atoms: C1_1  and  N1_2
REMARK    2  A    between atoms: N1_2  and  C2_3
REMARK    3  A    between atoms: C6_9  and  C7_10
REMARK    4  A    between atoms: C7_10  and  C8_12
REMARK                            x       y       z     vdW  Elec       q    Type
REMARK                         _______ _______ _______ _____ _____    ______ ____
ROOT
ATOM      1  C1  UNL     1      22.957  34.498  33.226  0.00  0.00    +0.000 C 
ATOM      2  N1  UNL     1      22.460  35.744  33.814  0.00  0.00    +0.000 N 
ATOM      3  C2  UNL     1      22.453  36.986  33.036  0.00  0.00    +0.000 C 
ATOM      4  C3  UNL     1      21.969  35.760  35.168  0.00  0.00    +0.000 A 
ATOM      5  N2  UNL     1      21.499  36.890  35.765  0.00  0.00    +0.000 NA
ATOM      6  C4  UNL     1      21.168  36.450  36.990  0.00  0.00    +0.000 A 
ATOM      7  C5  UNL     1      21.425  35.113  37.122  0.00  0.00    +0.000 A 
ATOM      8  N3  UNL     1      21.942  34.662  35.970  0.00  0.00    +0.000 N 
ATOM      9  C6  UNL     1      21.182  34.429  38.342  0.00  0.00    +0.000 A 
ATOM     10  N5  UNL     1      20.671  35.155  39.395  0.00  0.00    +0.000 NA
ATOM     11  C16 UNL     1      20.420  36.490  39.249  0.00  0.00    +0.000 A 
ATOM     12  C17 UNL     1      20.657  37.155  38.063  0.00  0.00    +0.000 A 
ATOM     13  C18 UNL     1      20.301  38.465  38.279  0.00  0.00    +0.000 A 
ATOM     14  C19 UNL     1      20.325  39.588  37.456  0.00  0.00    +0.000 A 
ATOM     15  C20 UNL     1      19.883  40.806  38.003  0.00  0.00    +0.000 A 
ATOM     16  C21 UNL     1      19.434  40.872  39.342  0.00  0.00    +0.000 A 
ATOM     17  C22 UNL     1      19.421  39.720  40.151  0.00  0.00    +0.000 A 
ATOM     18  C23 UNL     1      19.863  38.523  39.591  0.00  0.00    +0.000 A 
ATOM     19  N6  UNL     1      19.931  37.314  40.198  0.00  0.00    +0.000 N 
ATOM     20  H7  UNL     1      22.271  33.698  35.745  0.00  0.00    +0.000 HD
ATOM     21  H18 UNL     1      19.668  37.074  41.179  0.00  0.00    +0.000 HD
ENDROOT
BRANCH   9  22
ATOM     22  C7  UNL     1      21.422  32.978  38.502  0.00  0.00    +0.000 C 
ATOM     23  O1  UNL     1      20.871  32.168  37.710  0.00  0.00    +0.000 OA
BRANCH  22  24
ATOM     24  C8  UNL     1      22.280  32.455  39.587  0.00  0.00    +0.000 A 
ATOM     25  C9  UNL     1      22.088  31.279  40.312  0.00  0.00    +0.000 A 
ATOM     26  N4  UNL     1      23.044  31.138  41.257  0.00  0.00    +0.000 N 
ATOM     27  C10 UNL     1      23.839  32.215  41.145  0.00  0.00    +0.000 A 
ATOM     28  C11 UNL     1      24.965  32.511  41.912  0.00  0.00    +0.000 A 
ATOM     29  C12 UNL     1      25.662  33.698  41.627  0.00  0.00    +0.000 A 
ATOM     30  C13 UNL     1      25.225  34.552  40.591  0.00  0.00    +0.000 A 
ATOM     31  C14 UNL     1      24.085  34.229  39.833  0.00  0.00    +0.000 A 
ATOM     32  C15 UNL     1      23.407  33.046  40.140  0.00  0.00    +0.000 A 
ATOM     33  H9  UNL     1      23.135  30.355  41.940  0.00  0.00    +0.000 HD
ENDBRANCH  22  24
ENDBRANCH   9  22
TORSDOF 2
ENDMDL
