MODEL 1
REMARK VINA RESULT:    -8.642      0.000      0.000
REMARK INTER + INTRA:         -10.551
REMARK INTER:                 -10.410
REMARK INTRA:                  -0.140
REMARK UNBOUND:                -0.140
REMARK  Name = CNP0080599_0.pdb
REMARK  6 active torsions:
REMARK  status: ('A' for Active; 'I' for Inactive)
REMARK    1  A    between atoms: C1_1  and  C2_2
REMARK    2  A    between atoms: C2_2  and  C3_3
REMARK    3  A    between atoms: C12_12  and  C13_13
REMARK    4  A    between atoms: C13_13  and  C14_14
REMARK    5  A    between atoms: C14_14  and  N1_15
REMARK    6  A    between atoms: N2_24  and  O2_25
REMARK                            x       y       z     vdW  Elec       q    Type
REMARK                         _______ _______ _______ _____ _____    ______ ____
ROOT
ATOM      1  C1  UNL     1      59.757  54.063  64.989  0.00  0.00    +0.000 C 
ATOM      2  C2  UNL     1      58.459  54.878  64.928  0.00  0.00    +0.000 C 
ATOM      3  C3  UNL     1      58.032  55.074  63.470  0.00  0.00    +0.000 C 
ATOM      4  C4  UNL     1      58.693  56.228  65.576  0.00  0.00    +0.000 C 
ATOM      5  C5  UNL     1      58.379  56.456  66.855  0.00  0.00    +0.000 C 
ATOM      6  C6  UNL     1      57.674  55.435  67.656  0.00  0.00    +0.000 A 
ATOM      7  C7  UNL     1      57.169  54.305  66.973  0.00  0.00    +0.000 A 
ATOM      8  C8  UNL     1      56.398  53.338  67.645  0.00  0.00    +0.000 A 
ATOM      9  C9  UNL     1      56.140  53.465  69.015  0.00  0.00    +0.000 A 
ATOM     10  C10 UNL     1      56.666  54.566  69.685  0.00  0.00    +0.000 A 
ATOM     11  C11 UNL     1      57.414  55.533  69.042  0.00  0.00    +0.000 A 
ATOM     12  C12 UNL     1      57.802  56.431  70.042  0.00  0.00    +0.000 A 
ATOM     13  C23 UNL     1      57.258  55.944  71.225  0.00  0.00    +0.000 A 
ATOM     14  N3  UNL     1      56.562  54.813  71.000  0.00  0.00    +0.000 N 
ATOM     15  O4  UNL     1      57.426  54.152  65.607  0.00  0.00    +0.000 OA
ATOM     16  H21 UNL     1      56.070  54.230  71.714  0.00  0.00    +0.000 HD
ENDROOT
BRANCH  12  17
ATOM     17  C13 UNL     1      58.747  57.601  69.987  0.00  0.00    +0.000 C 
BRANCH  17  18
ATOM     18  C14 UNL     1      60.037  57.270  69.219  0.00  0.00    +0.000 C 
BRANCH  18  19
ATOM     19  N1  UNL     1      61.059  56.684  70.115  0.00  0.00    +0.000 N 
ATOM     20  C15 UNL     1      61.792  57.500  70.935  0.00  0.00    +0.000 A 
ATOM     21  O1  UNL     1      61.628  58.752  70.892  0.00  0.00    +0.000 OA
ATOM     22  C16 UNL     1      62.720  56.953  71.832  0.00  0.00    +0.000 A 
ATOM     23  C17 UNL     1      63.471  57.774  72.696  0.00  0.00    +0.000 A 
ATOM     24  C18 UNL     1      64.371  57.212  73.599  0.00  0.00    +0.000 A 
ATOM     25  C19 UNL     1      64.527  55.831  73.657  0.00  0.00    +0.000 A 
ATOM     26  C20 UNL     1      63.793  55.001  72.807  0.00  0.00    +0.000 A 
ATOM     27  C21 UNL     1      62.887  55.548  71.868  0.00  0.00    +0.000 A 
ATOM     28  N2  UNL     1      62.156  54.763  71.007  0.00  0.00    +0.000 N 
ATOM     29  C22 UNL     1      61.248  55.324  70.156  0.00  0.00    +0.000 A 
ATOM     30  O3  UNL     1      60.580  54.570  69.394  0.00  0.00    +0.000 OA
BRANCH  28  31
ATOM     31  O2  UNL     1      62.299  53.386  70.942  0.00  0.00    +0.000 OA
ATOM     32  H19 UNL     1      62.728  52.823  71.659  0.00  0.00    +0.000 HD
ENDBRANCH  28  31
ENDBRANCH  18  19
ENDBRANCH  17  18
ENDBRANCH  12  17
TORSDOF 4
ENDMDL
MODEL 2
REMARK VINA RESULT:    -8.540      2.214      7.671
REMARK INTER + INTRA:         -10.428
REMARK INTER:                  -9.808
REMARK INTRA:                  -0.620
REMARK UNBOUND:                -0.140
REMARK  Name = CNP0080599_0.pdb
REMARK  6 active torsions:
REMARK  status: ('A' for Active; 'I' for Inactive)
REMARK    1  A    between atoms: C1_1  and  C2_2
REMARK    2  A    between atoms: C2_2  and  C3_3
REMARK    3  A    between atoms: C12_12  and  C13_13
REMARK    4  A    between atoms: C13_13  and  C14_14
REMARK    5  A    between atoms: C14_14  and  N1_15
REMARK    6  A    between atoms: N2_24  and  O2_25
REMARK                            x       y       z     vdW  Elec       q    Type
REMARK                         _______ _______ _______ _____ _____    ______ ____
ROOT
ATOM      1  C1  UNL     1      63.447  52.159  72.945  0.00  0.00    +0.000 C 
ATOM      2  C2  UNL     1      63.152  53.004  74.191  0.00  0.00    +0.000 C 
ATOM      3  C3  UNL     1      63.423  52.183  75.456  0.00  0.00    +0.000 C 
ATOM      4  C4  UNL     1      61.698  53.433  74.165  0.00  0.00    +0.000 C 
ATOM      5  C5  UNL     1      61.327  54.623  73.684  0.00  0.00    +0.000 C 
ATOM      6  C6  UNL     1      62.334  55.622  73.272  0.00  0.00    +0.000 A 
ATOM      7  C7  UNL     1      63.685  55.356  73.592  0.00  0.00    +0.000 A 
ATOM      8  C8  UNL     1      64.691  56.303  73.327  0.00  0.00    +0.000 A 
ATOM      9  C9  UNL     1      64.375  57.520  72.711  0.00  0.00    +0.000 A 
ATOM     10  C10 UNL     1      63.046  57.760  72.373  0.00  0.00    +0.000 A 
ATOM     11  C11 UNL     1      62.040  56.851  72.637  0.00  0.00    +0.000 A 
ATOM     12  C12 UNL     1      60.875  57.418  72.112  0.00  0.00    +0.000 A 
ATOM     13  C23 UNL     1      61.258  58.639  71.565  0.00  0.00    +0.000 A 
ATOM     14  N3  UNL     1      62.578  58.844  71.734  0.00  0.00    +0.000 N 
ATOM     15  O4  UNL     1      64.025  54.141  74.195  0.00  0.00    +0.000 OA
ATOM     16  H21 UNL     1      63.129  59.668  71.402  0.00  0.00    +0.000 HD
ENDROOT
BRANCH  12  17
ATOM     17  C13 UNL     1      59.494  56.842  71.959  0.00  0.00    +0.000 C 
BRANCH  17  18
ATOM     18  C14 UNL     1      58.647  57.623  70.941  0.00  0.00    +0.000 C 
BRANCH  18  19
ATOM     19  N1  UNL     1      58.264  56.769  69.794  0.00  0.00    +0.000 N 
ATOM     20  C15 UNL     1      58.941  56.880  68.610  0.00  0.00    +0.000 A 
ATOM     21  O1  UNL     1      59.859  57.740  68.483  0.00  0.00    +0.000 OA
ATOM     22  C16 UNL     1      58.629  56.036  67.535  0.00  0.00    +0.000 A 
ATOM     23  C17 UNL     1      59.327  56.122  66.313  0.00  0.00    +0.000 A 
ATOM     24  C18 UNL     1      59.021  55.258  65.264  0.00  0.00    +0.000 A 
ATOM     25  C19 UNL     1      58.027  54.297  65.420  0.00  0.00    +0.000 A 
ATOM     26  C20 UNL     1      57.324  54.199  66.623  0.00  0.00    +0.000 A 
ATOM     27  C21 UNL     1      57.601  55.077  67.697  0.00  0.00    +0.000 A 
ATOM     28  N2  UNL     1      56.922  55.017  68.891  0.00  0.00    +0.000 N 
ATOM     29  C22 UNL     1      57.260  55.842  69.925  0.00  0.00    +0.000 A 
ATOM     30  O3  UNL     1      56.626  55.745  71.014  0.00  0.00    +0.000 OA
BRANCH  28  31
ATOM     31  O2  UNL     1      55.868  54.144  69.112  0.00  0.00    +0.000 OA
ATOM     32  H19 UNL     1      55.897  53.369  69.755  0.00  0.00    +0.000 HD
ENDBRANCH  28  31
ENDBRANCH  18  19
ENDBRANCH  17  18
ENDBRANCH  12  17
TORSDOF 4
ENDMDL
MODEL 3
REMARK VINA RESULT:    -8.361      2.223      7.674
REMARK INTER + INTRA:         -10.212
REMARK INTER:                  -9.631
REMARK INTRA:                  -0.581
REMARK UNBOUND:                -0.140
REMARK  Name = CNP0080599_0.pdb
REMARK  6 active torsions:
REMARK  status: ('A' for Active; 'I' for Inactive)
REMARK    1  A    between atoms: C1_1  and  C2_2
REMARK    2  A    between atoms: C2_2  and  C3_3
REMARK    3  A    between atoms: C12_12  and  C13_13
REMARK    4  A    between atoms: C13_13  and  C14_14
REMARK    5  A    between atoms: C14_14  and  N1_15
REMARK    6  A    between atoms: N2_24  and  O2_25
REMARK                            x       y       z     vdW  Elec       q    Type
REMARK                         _______ _______ _______ _____ _____    ______ ____
ROOT
ATOM      1  C1  UNL     1      63.122  52.127  72.876  0.00  0.00    +0.000 C 
ATOM      2  C2  UNL     1      62.789  52.969  74.114  0.00  0.00    +0.000 C 
ATOM      3  C3  UNL     1      62.978  52.131  75.383  0.00  0.00    +0.000 C 
ATOM      4  C4  UNL     1      61.349  53.434  74.022  0.00  0.00    +0.000 C 
ATOM      5  C5  UNL     1      61.031  54.637  73.536  0.00  0.00    +0.000 C 
ATOM      6  C6  UNL     1      62.081  55.614  73.182  0.00  0.00    +0.000 A 
ATOM      7  C7  UNL     1      63.408  55.312  73.564  0.00  0.00    +0.000 A 
ATOM      8  C8  UNL     1      64.449  56.235  73.356  0.00  0.00    +0.000 A 
ATOM      9  C9  UNL     1      64.192  57.464  72.737  0.00  0.00    +0.000 A 
ATOM     10  C10 UNL     1      62.888  57.741  72.338  0.00  0.00    +0.000 A 
ATOM     11  C11 UNL     1      61.849  56.855  72.545  0.00  0.00    +0.000 A 
ATOM     12  C12 UNL     1      60.725  57.456  71.969  0.00  0.00    +0.000 A 
ATOM     13  C23 UNL     1      61.164  58.671  71.453  0.00  0.00    +0.000 A 
ATOM     14  N3  UNL     1      62.478  58.842  71.688  0.00  0.00    +0.000 N 
ATOM     15  O4  UNL     1      63.689  54.084  74.171  0.00  0.00    +0.000 OA
ATOM     16  H21 UNL     1      63.065  59.653  71.390  0.00  0.00    +0.000 HD
ENDROOT
BRANCH  12  17
ATOM     17  C13 UNL     1      59.338  56.915  71.745  0.00  0.00    +0.000 C 
BRANCH  17  18
ATOM     18  C14 UNL     1      58.626  57.611  70.574  0.00  0.00    +0.000 C 
BRANCH  18  19
ATOM     19  N1  UNL     1      58.581  56.739  69.379  0.00  0.00    +0.000 N 
ATOM     20  C15 UNL     1      57.672  55.716  69.319  0.00  0.00    +0.000 A 
ATOM     21  O1  UNL     1      56.908  55.491  70.300  0.00  0.00    +0.000 OA
ATOM     22  C16 UNL     1      57.577  54.920  68.169  0.00  0.00    +0.000 A 
ATOM     23  C17 UNL     1      56.636  53.875  68.081  0.00  0.00    +0.000 A 
ATOM     24  C18 UNL     1      56.538  53.110  66.921  0.00  0.00    +0.000 A 
ATOM     25  C19 UNL     1      57.366  53.382  65.836  0.00  0.00    +0.000 A 
ATOM     26  C20 UNL     1      58.306  54.412  65.906  0.00  0.00    +0.000 A 
ATOM     27  C21 UNL     1      58.439  55.191  67.080  0.00  0.00    +0.000 A 
ATOM     28  N2  UNL     1      59.360  56.206  67.189  0.00  0.00    +0.000 N 
ATOM     29  C22 UNL     1      59.418  56.974  68.317  0.00  0.00    +0.000 A 
ATOM     30  O3  UNL     1      60.264  57.911  68.373  0.00  0.00    +0.000 OA
BRANCH  28  31
ATOM     31  O2  UNL     1      60.276  56.500  66.190  0.00  0.00    +0.000 OA
ATOM     32  H19 UNL     1      60.417  55.939  65.365  0.00  0.00    +0.000 HD
ENDBRANCH  28  31
ENDBRANCH  18  19
ENDBRANCH  17  18
ENDBRANCH  12  17
TORSDOF 4
ENDMDL
MODEL 4
REMARK VINA RESULT:    -8.342      1.518      2.284
REMARK INTER + INTRA:         -10.189
REMARK INTER:                  -9.595
REMARK INTRA:                  -0.594
REMARK UNBOUND:                -0.140
REMARK  Name = CNP0080599_0.pdb
REMARK  6 active torsions:
REMARK  status: ('A' for Active; 'I' for Inactive)
REMARK    1  A    between atoms: C1_1  and  C2_2
REMARK    2  A    between atoms: C2_2  and  C3_3
REMARK    3  A    between atoms: C12_12  and  C13_13
REMARK    4  A    between atoms: C13_13  and  C14_14
REMARK    5  A    between atoms: C14_14  and  N1_15
REMARK    6  A    between atoms: N2_24  and  O2_25
REMARK                            x       y       z     vdW  Elec       q    Type
REMARK                         _______ _______ _______ _____ _____    ______ ____
ROOT
ATOM      1  C1  UNL     1      59.744  53.890  64.791  0.00  0.00    +0.000 C 
ATOM      2  C2  UNL     1      58.430  54.680  64.755  0.00  0.00    +0.000 C 
ATOM      3  C3  UNL     1      58.065  55.025  63.308  0.00  0.00    +0.000 C 
ATOM      4  C4  UNL     1      58.598  55.957  65.556  0.00  0.00    +0.000 C 
ATOM      5  C5  UNL     1      58.220  56.038  66.835  0.00  0.00    +0.000 C 
ATOM      6  C6  UNL     1      57.505  54.921  67.486  0.00  0.00    +0.000 A 
ATOM      7  C7  UNL     1      57.062  53.862  66.662  0.00  0.00    +0.000 A 
ATOM      8  C8  UNL     1      56.286  52.812  67.188  0.00  0.00    +0.000 A 
ATOM      9  C9  UNL     1      55.963  52.783  68.549  0.00  0.00    +0.000 A 
ATOM     10  C10 UNL     1      56.429  53.816  69.358  0.00  0.00    +0.000 A 
ATOM     11  C11 UNL     1      57.180  54.862  68.861  0.00  0.00    +0.000 A 
ATOM     12  C12 UNL     1      57.498  55.654  69.969  0.00  0.00    +0.000 A 
ATOM     13  C23 UNL     1      56.913  55.030  71.065  0.00  0.00    +0.000 A 
ATOM     14  N3  UNL     1      56.257  53.916  70.686  0.00  0.00    +0.000 N 
ATOM     15  O4  UNL     1      57.385  53.863  65.302  0.00  0.00    +0.000 OA
ATOM     16  H21 UNL     1      55.749  53.249  71.309  0.00  0.00    +0.000 HD
ENDROOT
BRANCH  12  17
ATOM     17  C13 UNL     1      58.414  56.842  70.086  0.00  0.00    +0.000 C 
BRANCH  17  18
ATOM     18  C14 UNL     1      58.618  57.276  71.547  0.00  0.00    +0.000 C 
BRANCH  18  19
ATOM     19  N1  UNL     1      60.053  57.271  71.913  0.00  0.00    +0.000 N 
ATOM     20  C15 UNL     1      60.582  56.191  72.567  0.00  0.00    +0.000 A 
ATOM     21  O1  UNL     1      59.838  55.225  72.899  0.00  0.00    +0.000 OA
ATOM     22  C16 UNL     1      61.951  56.146  72.866  0.00  0.00    +0.000 A 
ATOM     23  C17 UNL     1      62.518  55.036  73.523  0.00  0.00    +0.000 A 
ATOM     24  C18 UNL     1      63.885  54.996  73.790  0.00  0.00    +0.000 A 
ATOM     25  C19 UNL     1      64.701  56.053  73.399  0.00  0.00    +0.000 A 
ATOM     26  C20 UNL     1      64.156  57.163  72.748  0.00  0.00    +0.000 A 
ATOM     27  C21 UNL     1      62.768  57.236  72.483  0.00  0.00    +0.000 A 
ATOM     28  N2  UNL     1      62.195  58.317  71.855  0.00  0.00    +0.000 N 
ATOM     29  C22 UNL     1      60.861  58.325  71.564  0.00  0.00    +0.000 A 
ATOM     30  O3  UNL     1      60.373  59.326  70.968  0.00  0.00    +0.000 OA
BRANCH  28  31
ATOM     31  O2  UNL     1      62.915  59.446  71.497  0.00  0.00    +0.000 OA
ATOM     32  H19 UNL     1      63.887  59.594  71.717  0.00  0.00    +0.000 HD
ENDBRANCH  28  31
ENDBRANCH  18  19
ENDBRANCH  17  18
ENDBRANCH  12  17
TORSDOF 4
ENDMDL
MODEL 5
REMARK VINA RESULT:    -8.192      2.684      6.702
REMARK INTER + INTRA:         -10.008
REMARK INTER:                  -8.193
REMARK INTRA:                  -1.815
REMARK UNBOUND:                -0.140
REMARK  Name = CNP0080599_0.pdb
REMARK  6 active torsions:
REMARK  status: ('A' for Active; 'I' for Inactive)
REMARK    1  A    between atoms: C1_1  and  C2_2
REMARK    2  A    between atoms: C2_2  and  C3_3
REMARK    3  A    between atoms: C12_12  and  C13_13
REMARK    4  A    between atoms: C13_13  and  C14_14
REMARK    5  A    between atoms: C14_14  and  N1_15
REMARK    6  A    between atoms: N2_24  and  O2_25
REMARK                            x       y       z     vdW  Elec       q    Type
REMARK                         _______ _______ _______ _____ _____    ______ ____
ROOT
ATOM      1  C1  UNL     1      60.296  57.911  72.778  0.00  0.00    +0.000 C 
ATOM      2  C2  UNL     1      61.544  57.991  71.890  0.00  0.00    +0.000 C 
ATOM      3  C3  UNL     1      61.928  59.456  71.657  0.00  0.00    +0.000 C 
ATOM      4  C4  UNL     1      61.248  57.325  70.561  0.00  0.00    +0.000 C 
ATOM      5  C5  UNL     1      61.576  56.051  70.326  0.00  0.00    +0.000 C 
ATOM      6  C6  UNL     1      62.355  55.274  71.313  0.00  0.00    +0.000 A 
ATOM      7  C7  UNL     1      62.909  55.979  72.406  0.00  0.00    +0.000 A 
ATOM      8  C8  UNL     1      63.747  55.333  73.333  0.00  0.00    +0.000 A 
ATOM      9  C9  UNL     1      64.026  53.967  73.204  0.00  0.00    +0.000 A 
ATOM     10  C10 UNL     1      63.453  53.276  72.140  0.00  0.00    +0.000 A 
ATOM     11  C11 UNL     1      62.638  53.893  71.212  0.00  0.00    +0.000 A 
ATOM     12  C12 UNL     1      62.221  52.877  70.345  0.00  0.00    +0.000 A 
ATOM     13  C23 UNL     1      62.818  51.710  70.812  0.00  0.00    +0.000 A 
ATOM     14  N3  UNL     1      63.571  51.960  71.899  0.00  0.00    +0.000 N 
ATOM     15  O4  UNL     1      62.631  57.340  72.562  0.00  0.00    +0.000 OA
ATOM     16  H21 UNL     1      64.110  51.262  72.459  0.00  0.00    +0.000 HD
ENDROOT
BRANCH  12  17
ATOM     17  C13 UNL     1      61.211  52.900  69.231  0.00  0.00    +0.000 C 
BRANCH  17  18
ATOM     18  C14 UNL     1      59.820  52.440  69.698  0.00  0.00    +0.000 C 
BRANCH  18  19
ATOM     19  N1  UNL     1      59.026  53.576  70.219  0.00  0.00    +0.000 N 
ATOM     20  C15 UNL     1      58.838  53.709  71.569  0.00  0.00    +0.000 A 
ATOM     21  O1  UNL     1      59.301  52.840  72.361  0.00  0.00    +0.000 OA
ATOM     22  C16 UNL     1      58.140  54.812  72.080  0.00  0.00    +0.000 A 
ATOM     23  C17 UNL     1      57.951  54.977  73.467  0.00  0.00    +0.000 A 
ATOM     24  C18 UNL     1      57.277  56.092  73.960  0.00  0.00    +0.000 A 
ATOM     25  C19 UNL     1      56.793  57.057  73.082  0.00  0.00    +0.000 A 
ATOM     26  C20 UNL     1      56.969  56.909  71.704  0.00  0.00    +0.000 A 
ATOM     27  C21 UNL     1      57.633  55.776  71.177  0.00  0.00    +0.000 A 
ATOM     28  N2  UNL     1      57.814  55.592  69.826  0.00  0.00    +0.000 N 
ATOM     29  C22 UNL     1      58.512  54.515  69.360  0.00  0.00    +0.000 A 
ATOM     30  O3  UNL     1      58.676  54.389  68.113  0.00  0.00    +0.000 OA
BRANCH  28  31
ATOM     31  O2  UNL     1      57.303  56.460  68.874  0.00  0.00    +0.000 OA
ATOM     32  H19 UNL     1      57.719  57.345  68.629  0.00  0.00    +0.000 HD
ENDBRANCH  28  31
ENDBRANCH  18  19
ENDBRANCH  17  18
ENDBRANCH  12  17
TORSDOF 4
ENDMDL
MODEL 6
REMARK VINA RESULT:    -8.152      2.196      7.486
REMARK INTER + INTRA:          -9.960
REMARK INTER:                  -9.312
REMARK INTRA:                  -0.649
REMARK UNBOUND:                -0.140
REMARK  Name = CNP0080599_0.pdb
REMARK  6 active torsions:
REMARK  status: ('A' for Active; 'I' for Inactive)
REMARK    1  A    between atoms: C1_1  and  C2_2
REMARK    2  A    between atoms: C2_2  and  C3_3
REMARK    3  A    between atoms: C12_12  and  C13_13
REMARK    4  A    between atoms: C13_13  and  C14_14
REMARK    5  A    between atoms: C14_14  and  N1_15
REMARK    6  A    between atoms: N2_24  and  O2_25
REMARK                            x       y       z     vdW  Elec       q    Type
REMARK                         _______ _______ _______ _____ _____    ______ ____
ROOT
ATOM      1  C1  UNL     1      63.700  57.674  71.736  0.00  0.00    +0.000 C 
ATOM      2  C2  UNL     1      63.159  56.617  72.708  0.00  0.00    +0.000 C 
ATOM      3  C3  UNL     1      64.134  56.432  73.875  0.00  0.00    +0.000 C 
ATOM      4  C4  UNL     1      62.995  55.304  71.968  0.00  0.00    +0.000 C 
ATOM      5  C5  UNL     1      61.822  54.935  71.445  0.00  0.00    +0.000 C 
ATOM      6  C6  UNL     1      60.604  55.738  71.676  0.00  0.00    +0.000 A 
ATOM      7  C7  UNL     1      60.681  56.782  72.625  0.00  0.00    +0.000 A 
ATOM      8  C8  UNL     1      59.540  57.526  72.977  0.00  0.00    +0.000 A 
ATOM      9  C9  UNL     1      58.307  57.262  72.368  0.00  0.00    +0.000 A 
ATOM     10  C10 UNL     1      58.247  56.251  71.414  0.00  0.00    +0.000 A 
ATOM     11  C11 UNL     1      59.352  55.500  71.063  0.00  0.00    +0.000 A 
ATOM     12  C12 UNL     1      58.913  54.637  70.054  0.00  0.00    +0.000 A 
ATOM     13  C23 UNL     1      57.565  54.927  69.863  0.00  0.00    +0.000 A 
ATOM     14  N3  UNL     1      57.165  55.904  70.699  0.00  0.00    +0.000 N 
ATOM     15  O4  UNL     1      61.905  57.072  73.234  0.00  0.00    +0.000 OA
ATOM     16  H21 UNL     1      56.211  56.327  70.752  0.00  0.00    +0.000 HD
ENDROOT
BRANCH  12  17
ATOM     17  C13 UNL     1      59.686  53.691  69.176  0.00  0.00    +0.000 C 
BRANCH  17  18
ATOM     18  C14 UNL     1      60.656  54.429  68.239  0.00  0.00    +0.000 C 
BRANCH  18  19
ATOM     19  N1  UNL     1      60.012  54.752  66.946  0.00  0.00    +0.000 N 
ATOM     20  C15 UNL     1      59.863  53.774  66.000  0.00  0.00    +0.000 A 
ATOM     21  O1  UNL     1      60.316  52.613  66.211  0.00  0.00    +0.000 OA
ATOM     22  C16 UNL     1      59.200  54.050  64.795  0.00  0.00    +0.000 A 
ATOM     23  C17 UNL     1      59.021  53.053  63.816  0.00  0.00    +0.000 A 
ATOM     24  C18 UNL     1      58.338  53.338  62.635  0.00  0.00    +0.000 A 
ATOM     25  C19 UNL     1      57.820  54.611  62.421  0.00  0.00    +0.000 A 
ATOM     26  C20 UNL     1      57.990  55.613  63.379  0.00  0.00    +0.000 A 
ATOM     27  C21 UNL     1      58.697  55.355  64.578  0.00  0.00    +0.000 A 
ATOM     28  N2  UNL     1      58.893  56.319  65.538  0.00  0.00    +0.000 N 
ATOM     29  C22 UNL     1      59.529  56.015  66.708  0.00  0.00    +0.000 A 
ATOM     30  O3  UNL     1      59.674  56.921  67.576  0.00  0.00    +0.000 OA
BRANCH  28  31
ATOM     31  O2  UNL     1      58.480  57.632  65.380  0.00  0.00    +0.000 OA
ATOM     32  H19 UNL     1      57.564  57.974  65.626  0.00  0.00    +0.000 HD
ENDBRANCH  28  31
ENDBRANCH  18  19
ENDBRANCH  17  18
ENDBRANCH  12  17
TORSDOF 4
ENDMDL
MODEL 7
REMARK VINA RESULT:    -8.118      6.009      9.634
REMARK INTER + INTRA:          -9.919
REMARK INTER:                  -9.368
REMARK INTRA:                  -0.551
REMARK UNBOUND:                -0.140
REMARK  Name = CNP0080599_0.pdb
REMARK  6 active torsions:
REMARK  status: ('A' for Active; 'I' for Inactive)
REMARK    1  A    between atoms: C1_1  and  C2_2
REMARK    2  A    between atoms: C2_2  and  C3_3
REMARK    3  A    between atoms: C12_12  and  C13_13
REMARK    4  A    between atoms: C13_13  and  C14_14
REMARK    5  A    between atoms: C14_14  and  N1_15
REMARK    6  A    between atoms: N2_24  and  O2_25
REMARK                            x       y       z     vdW  Elec       q    Type
REMARK                         _______ _______ _______ _____ _____    ______ ____
ROOT
ATOM      1  C1  UNL     1      56.166  53.365  80.282  0.00  0.00    +0.000 C 
ATOM      2  C2  UNL     1      56.801  54.665  79.773  0.00  0.00    +0.000 C 
ATOM      3  C3  UNL     1      55.796  55.817  79.886  0.00  0.00    +0.000 C 
ATOM      4  C4  UNL     1      57.207  54.484  78.324  0.00  0.00    +0.000 C 
ATOM      5  C5  UNL     1      58.452  54.140  77.982  0.00  0.00    +0.000 C 
ATOM      6  C6  UNL     1      59.518  54.044  79.000  0.00  0.00    +0.000 A 
ATOM      7  C7  UNL     1      59.226  54.521  80.298  0.00  0.00    +0.000 A 
ATOM      8  C8  UNL     1      60.217  54.560  81.295  0.00  0.00    +0.000 A 
ATOM      9  C9  UNL     1      61.511  54.097  81.026  0.00  0.00    +0.000 A 
ATOM     10  C10 UNL     1      61.781  53.601  79.754  0.00  0.00    +0.000 A 
ATOM     11  C11 UNL     1      60.826  53.566  78.757  0.00  0.00    +0.000 A 
ATOM     12  C12 UNL     1      61.452  52.963  77.661  0.00  0.00    +0.000 A 
ATOM     13  C23 UNL     1      62.749  52.674  78.073  0.00  0.00    +0.000 A 
ATOM     14  N3  UNL     1      62.945  53.071  79.344  0.00  0.00    +0.000 N 
ATOM     15  O4  UNL     1      57.937  54.976  80.592  0.00  0.00    +0.000 OA
ATOM     16  H21 UNL     1      63.818  52.957  79.906  0.00  0.00    +0.000 HD
ENDROOT
BRANCH  12  17
ATOM     17  C13 UNL     1      60.886  52.515  76.341  0.00  0.00    +0.000 C 
BRANCH  17  18
ATOM     18  C14 UNL     1      61.980  52.302  75.282  0.00  0.00    +0.000 C 
BRANCH  18  19
ATOM     19  N1  UNL     1      62.073  53.461  74.366  0.00  0.00    +0.000 N 
ATOM     20  C15 UNL     1      63.110  54.345  74.495  0.00  0.00    +0.000 A 
ATOM     21  O1  UNL     1      63.957  54.197  75.421  0.00  0.00    +0.000 OA
ATOM     22  C16 UNL     1      63.245  55.413  73.596  0.00  0.00    +0.000 A 
ATOM     23  C17 UNL     1      64.316  56.324  73.701  0.00  0.00    +0.000 A 
ATOM     24  C18 UNL     1      64.449  57.365  72.784  0.00  0.00    +0.000 A 
ATOM     25  C19 UNL     1      63.527  57.505  71.752  0.00  0.00    +0.000 A 
ATOM     26  C20 UNL     1      62.458  56.613  71.634  0.00  0.00    +0.000 A 
ATOM     27  C21 UNL     1      62.289  55.559  72.563  0.00  0.00    +0.000 A 
ATOM     28  N2  UNL     1      61.244  54.670  72.484  0.00  0.00    +0.000 N 
ATOM     29  C22 UNL     1      61.148  53.630  73.365  0.00  0.00    +0.000 A 
ATOM     30  O3  UNL     1      60.185  52.821  73.250  0.00  0.00    +0.000 OA
BRANCH  28  31
ATOM     31  O2  UNL     1      60.237  54.775  71.537  0.00  0.00    +0.000 OA
ATOM     32  H19 UNL     1      60.110  54.135  70.769  0.00  0.00    +0.000 HD
ENDBRANCH  28  31
ENDBRANCH  18  19
ENDBRANCH  17  18
ENDBRANCH  12  17
TORSDOF 4
ENDMDL
MODEL 8
REMARK VINA RESULT:    -8.076      2.721      7.067
REMARK INTER + INTRA:          -9.868
REMARK INTER:                  -9.236
REMARK INTRA:                  -0.633
REMARK UNBOUND:                -0.140
REMARK  Name = CNP0080599_0.pdb
REMARK  6 active torsions:
REMARK  status: ('A' for Active; 'I' for Inactive)
REMARK    1  A    between atoms: C1_1  and  C2_2
REMARK    2  A    between atoms: C2_2  and  C3_3
REMARK    3  A    between atoms: C12_12  and  C13_13
REMARK    4  A    between atoms: C13_13  and  C14_14
REMARK    5  A    between atoms: C14_14  and  N1_15
REMARK    6  A    between atoms: N2_24  and  O2_25
REMARK                            x       y       z     vdW  Elec       q    Type
REMARK                         _______ _______ _______ _____ _____    ______ ____
ROOT
ATOM      1  C1  UNL     1      55.415  54.846  73.584  0.00  0.00    +0.000 C 
ATOM      2  C2  UNL     1      56.512  55.533  74.408  0.00  0.00    +0.000 C 
ATOM      3  C3  UNL     1      56.043  55.713  75.855  0.00  0.00    +0.000 C 
ATOM      4  C4  UNL     1      56.813  56.887  73.798  0.00  0.00    +0.000 C 
ATOM      5  C5  UNL     1      57.822  57.061  72.938  0.00  0.00    +0.000 C 
ATOM      6  C6  UNL     1      58.763  55.961  72.643  0.00  0.00    +0.000 A 
ATOM      7  C7  UNL     1      58.683  54.801  73.445  0.00  0.00    +0.000 A 
ATOM      8  C8  UNL     1      59.609  53.752  73.296  0.00  0.00    +0.000 A 
ATOM      9  C9  UNL     1      60.615  53.828  72.325  0.00  0.00    +0.000 A 
ATOM     10  C10 UNL     1      60.668  54.963  71.520  0.00  0.00    +0.000 A 
ATOM     11  C11 UNL     1      59.777  56.009  71.658  0.00  0.00    +0.000 A 
ATOM     12  C12 UNL     1      60.113  56.922  70.654  0.00  0.00    +0.000 A 
ATOM     13  C23 UNL     1      61.191  56.363  69.975  0.00  0.00    +0.000 A 
ATOM     14  N3  UNL     1      61.528  55.175  70.511  0.00  0.00    +0.000 N 
ATOM     15  O4  UNL     1      57.678  54.698  74.412  0.00  0.00    +0.000 OA
ATOM     16  H21 UNL     1      62.285  54.534  70.183  0.00  0.00    +0.000 HD
ENDROOT
BRANCH  12  17
ATOM     17  C13 UNL     1      59.417  58.179  70.207  0.00  0.00    +0.000 C 
BRANCH  17  18
ATOM     18  C14 UNL     1      57.990  57.904  69.704  0.00  0.00    +0.000 C 
BRANCH  18  19
ATOM     19  N1  UNL     1      57.985  56.879  68.637  0.00  0.00    +0.000 N 
ATOM     20  C15 UNL     1      57.320  55.698  68.834  0.00  0.00    +0.000 A 
ATOM     21  O1  UNL     1      56.754  55.468  69.939  0.00  0.00    +0.000 OA
ATOM     22  C16 UNL     1      57.255  54.743  67.809  0.00  0.00    +0.000 A 
ATOM     23  C17 UNL     1      56.561  53.530  67.985  0.00  0.00    +0.000 A 
ATOM     24  C18 UNL     1      56.486  52.603  66.948  0.00  0.00    +0.000 A 
ATOM     25  C19 UNL     1      57.091  52.876  65.725  0.00  0.00    +0.000 A 
ATOM     26  C20 UNL     1      57.785  54.073  65.533  0.00  0.00    +0.000 A 
ATOM     27  C21 UNL     1      57.893  55.022  66.576  0.00  0.00    +0.000 A 
ATOM     28  N2  UNL     1      58.578  56.205  66.427  0.00  0.00    +0.000 N 
ATOM     29  C22 UNL     1      58.609  57.122  67.439  0.00  0.00    +0.000 A 
ATOM     30  O3  UNL     1      59.232  58.207  67.258  0.00  0.00    +0.000 OA
BRANCH  28  31
ATOM     31  O2  UNL     1      59.274  56.530  65.273  0.00  0.00    +0.000 OA
ATOM     32  H19 UNL     1      58.929  57.149  64.556  0.00  0.00    +0.000 HD
ENDBRANCH  28  31
ENDBRANCH  18  19
ENDBRANCH  17  18
ENDBRANCH  12  17
TORSDOF 4
ENDMDL
MODEL 9
REMARK VINA RESULT:    -8.037      1.974      3.222
REMARK INTER + INTRA:          -9.822
REMARK INTER:                  -9.403
REMARK INTRA:                  -0.419
REMARK UNBOUND:                -0.140
REMARK  Name = CNP0080599_0.pdb
REMARK  6 active torsions:
REMARK  status: ('A' for Active; 'I' for Inactive)
REMARK    1  A    between atoms: C1_1  and  C2_2
REMARK    2  A    between atoms: C2_2  and  C3_3
REMARK    3  A    between atoms: C12_12  and  C13_13
REMARK    4  A    between atoms: C13_13  and  C14_14
REMARK    5  A    between atoms: C14_14  and  N1_15
REMARK    6  A    between atoms: N2_24  and  O2_25
REMARK                            x       y       z     vdW  Elec       q    Type
REMARK                         _______ _______ _______ _____ _____    ______ ____
ROOT
ATOM      1  C1  UNL     1      54.595  52.475  67.815  0.00  0.00    +0.000 C 
ATOM      2  C2  UNL     1      56.083  52.174  68.031  0.00  0.00    +0.000 C 
ATOM      3  C3  UNL     1      56.363  50.693  67.755  0.00  0.00    +0.000 C 
ATOM      4  C4  UNL     1      56.452  52.503  69.465  0.00  0.00    +0.000 C 
ATOM      5  C5  UNL     1      56.988  53.680  69.799  0.00  0.00    +0.000 C 
ATOM      6  C6  UNL     1      57.361  54.664  68.762  0.00  0.00    +0.000 A 
ATOM      7  C7  UNL     1      57.320  54.240  67.415  0.00  0.00    +0.000 A 
ATOM      8  C8  UNL     1      57.757  55.083  66.377  0.00  0.00    +0.000 A 
ATOM      9  C9  UNL     1      58.215  56.375  66.659  0.00  0.00    +0.000 A 
ATOM     10  C10 UNL     1      58.225  56.794  67.987  0.00  0.00    +0.000 A 
ATOM     11  C11 UNL     1      57.813  55.979  69.022  0.00  0.00    +0.000 A 
ATOM     12  C12 UNL     1      57.917  56.759  70.178  0.00  0.00    +0.000 A 
ATOM     13  C23 UNL     1      58.388  58.000  69.759  0.00  0.00    +0.000 A 
ATOM     14  N3  UNL     1      58.581  58.012  68.427  0.00  0.00    +0.000 N 
ATOM     15  O4  UNL     1      56.852  52.958  67.109  0.00  0.00    +0.000 OA
ATOM     16  H21 UNL     1      58.908  58.820  67.851  0.00  0.00    +0.000 HD
ENDROOT
BRANCH  12  17
ATOM     17  C13 UNL     1      57.474  56.477  71.587  0.00  0.00    +0.000 C 
BRANCH  17  18
ATOM     18  C14 UNL     1      58.313  57.240  72.625  0.00  0.00    +0.000 C 
BRANCH  18  19
ATOM     19  N1  UNL     1      59.648  56.623  72.794  0.00  0.00    +0.000 N 
ATOM     20  C15 UNL     1      60.774  57.373  72.583  0.00  0.00    +0.000 A 
ATOM     21  O1  UNL     1      60.672  58.573  72.200  0.00  0.00    +0.000 OA
ATOM     22  C16 UNL     1      62.044  56.819  72.799  0.00  0.00    +0.000 A 
ATOM     23  C17 UNL     1      63.214  57.580  72.604  0.00  0.00    +0.000 A 
ATOM     24  C18 UNL     1      64.467  57.022  72.847  0.00  0.00    +0.000 A 
ATOM     25  C19 UNL     1      64.568  55.707  73.293  0.00  0.00    +0.000 A 
ATOM     26  C20 UNL     1      63.419  54.938  73.489  0.00  0.00    +0.000 A 
ATOM     27  C21 UNL     1      62.136  55.475  73.231  0.00  0.00    +0.000 A 
ATOM     28  N2  UNL     1      60.984  54.743  73.402  0.00  0.00    +0.000 N 
ATOM     29  C22 UNL     1      59.761  55.316  73.199  0.00  0.00    +0.000 A 
ATOM     30  O3  UNL     1      58.724  54.619  73.385  0.00  0.00    +0.000 OA
BRANCH  28  31
ATOM     31  O2  UNL     1      60.990  53.407  73.770  0.00  0.00    +0.000 OA
ATOM     32  H19 UNL     1      61.084  53.079  74.718  0.00  0.00    +0.000 HD
ENDBRANCH  28  31
ENDBRANCH  18  19
ENDBRANCH  17  18
ENDBRANCH  12  17
TORSDOF 4
ENDMDL
MODEL 10
REMARK VINA RESULT:    -7.929      2.074      6.634
REMARK INTER + INTRA:          -9.692
REMARK INTER:                  -8.785
REMARK INTRA:                  -0.907
REMARK UNBOUND:                -0.140
REMARK  Name = CNP0080599_0.pdb
REMARK  6 active torsions:
REMARK  status: ('A' for Active; 'I' for Inactive)
REMARK    1  A    between atoms: C1_1  and  C2_2
REMARK    2  A    between atoms: C2_2  and  C3_3
REMARK    3  A    between atoms: C12_12  and  C13_13
REMARK    4  A    between atoms: C13_13  and  C14_14
REMARK    5  A    between atoms: C14_14  and  N1_15
REMARK    6  A    between atoms: N2_24  and  O2_25
REMARK                            x       y       z     vdW  Elec       q    Type
REMARK                         _______ _______ _______ _____ _____    ______ ____
ROOT
ATOM      1  C1  UNL     1      63.153  52.754  69.068  0.00  0.00    +0.000 C 
ATOM      2  C2  UNL     1      61.937  52.777  70.003  0.00  0.00    +0.000 C 
ATOM      3  C3  UNL     1      61.507  51.345  70.338  0.00  0.00    +0.000 C 
ATOM      4  C4  UNL     1      60.798  53.504  69.316  0.00  0.00    +0.000 C 
ATOM      5  C5  UNL     1      60.562  54.801  69.530  0.00  0.00    +0.000 C 
ATOM      6  C6  UNL     1      61.330  55.554  70.544  0.00  0.00    +0.000 A 
ATOM      7  C7  UNL     1      62.167  54.814  71.410  0.00  0.00    +0.000 A 
ATOM      8  C8  UNL     1      62.851  55.442  72.466  0.00  0.00    +0.000 A 
ATOM      9  C9  UNL     1      62.736  56.823  72.662  0.00  0.00    +0.000 A 
ATOM     10  C10 UNL     1      61.932  57.548  71.787  0.00  0.00    +0.000 A 
ATOM     11  C11 UNL     1      61.242  56.950  70.751  0.00  0.00    +0.000 A 
ATOM     12  C12 UNL     1      60.603  57.993  70.075  0.00  0.00    +0.000 A 
ATOM     13  C23 UNL     1      60.951  59.157  70.753  0.00  0.00    +0.000 A 
ATOM     14  N3  UNL     1      61.754  58.879  71.797  0.00  0.00    +0.000 N 
ATOM     15  O4  UNL     1      62.306  53.435  71.223  0.00  0.00    +0.000 OA
ATOM     16  H21 UNL     1      62.178  59.567  72.459  0.00  0.00    +0.000 HD
ENDROOT
BRANCH  12  17
ATOM     17  C13 UNL     1      59.830  57.990  68.784  0.00  0.00    +0.000 C 
BRANCH  17  18
ATOM     18  C14 UNL     1      58.313  57.896  69.015  0.00  0.00    +0.000 C 
BRANCH  18  19
ATOM     19  N1  UNL     1      57.797  56.556  68.656  0.00  0.00    +0.000 N 
ATOM     20  C15 UNL     1      57.901  56.112  67.365  0.00  0.00    +0.000 A 
ATOM     21  O1  UNL     1      58.392  56.863  66.476  0.00  0.00    +0.000 OA
ATOM     22  C16 UNL     1      57.472  54.821  67.024  0.00  0.00    +0.000 A 
ATOM     23  C17 UNL     1      57.586  54.340  65.705  0.00  0.00    +0.000 A 
ATOM     24  C18 UNL     1      57.178  53.046  65.388  0.00  0.00    +0.000 A 
ATOM     25  C19 UNL     1      56.662  52.217  66.379  0.00  0.00    +0.000 A 
ATOM     26  C20 UNL     1      56.539  52.678  67.692  0.00  0.00    +0.000 A 
ATOM     27  C21 UNL     1      56.928  53.994  68.036  0.00  0.00    +0.000 A 
ATOM     28  N2  UNL     1      56.811  54.486  69.314  0.00  0.00    +0.000 N 
ATOM     29  C22 UNL     1      57.252  55.742  69.619  0.00  0.00    +0.000 A 
ATOM     30  O3  UNL     1      57.147  56.153  70.809  0.00  0.00    +0.000 OA
BRANCH  28  31
ATOM     31  O2  UNL     1      56.240  53.761  70.349  0.00  0.00    +0.000 OA
ATOM     32  H19 UNL     1      55.935  54.161  71.222  0.00  0.00    +0.000 HD
ENDBRANCH  28  31
ENDBRANCH  18  19
ENDBRANCH  17  18
ENDBRANCH  12  17
TORSDOF 4
ENDMDL
