MODEL 1
REMARK VINA RESULT:    -7.924      0.000      0.000
REMARK INTER + INTRA:          -9.796
REMARK INTER:                  -8.850
REMARK INTRA:                  -0.946
REMARK UNBOUND:                -0.946
REMARK  Name = CNP0054636_2.pdb
REMARK  2 active torsions:
REMARK  status: ('A' for Active; 'I' for Inactive)
REMARK    1  A    between atoms: N1_7  and  C5_8
REMARK    2  A    between atoms: C12_17  and  C13_18
REMARK                            x       y       z     vdW  Elec       q    Type
REMARK                         _______ _______ _______ _____ _____    ______ ____
ROOT
ATOM      1  O1  UNL     1      18.844  36.744  35.879  0.00  0.00    +0.000 OA
ATOM      2  C1  UNL     1      18.894  37.748  35.121  0.00  0.00    +0.000 C 
ATOM      3  C2  UNL     1      19.256  39.127  35.537  0.00  0.00    +0.000 C 
ATOM      4  C3  UNL     1      19.712  39.693  34.237  0.00  0.00    +0.000 C 
ATOM      5  C4  UNL     1      18.716  39.101  33.308  0.00  0.00    +0.000 C 
ATOM      6  O2  UNL     1      18.403  39.562  32.178  0.00  0.00    +0.000 OA
ATOM      7  N1  UNL     1      18.368  37.794  33.786  0.00  0.00    +0.000 N 
ATOM      8  C11 UNL     1      20.016  41.115  34.667  0.00  0.00    +0.000 C 
ATOM      9  O3  UNL     1      20.542  41.019  35.994  0.00  0.00    +0.000 OA
ATOM     10  C12 UNL     1      20.350  39.666  36.430  0.00  0.00    +0.000 C 
ATOM     11  C19 UNL     1      20.997  41.800  33.749  0.00  0.00    +0.000 C 
ATOM     12  O4  UNL     1      22.170  41.403  33.521  0.00  0.00    +0.000 OA
ATOM     13  C20 UNL     1      20.407  43.004  33.181  0.00  0.00    +0.000 A 
ATOM     14  C21 UNL     1      20.957  43.923  32.287  0.00  0.00    +0.000 A 
ATOM     15  C22 UNL     1      20.173  45.021  31.896  0.00  0.00    +0.000 A 
ATOM     16  C23 UNL     1      18.868  45.181  32.404  0.00  0.00    +0.000 A 
ATOM     17  C24 UNL     1      18.337  44.241  33.304  0.00  0.00    +0.000 A 
ATOM     18  C25 UNL     1      19.135  43.158  33.675  0.00  0.00    +0.000 A 
ATOM     19  C26 UNL     1      18.840  42.063  34.588  0.00  0.00    +0.000 C 
ATOM     20  O5  UNL     1      17.766  41.949  35.236  0.00  0.00    +0.000 OA
ENDROOT
BRANCH   7  21
ATOM     21  C5  UNL     1      17.695  36.747  33.065  0.00  0.00    +0.000 A 
ATOM     22  C6  UNL     1      16.306  36.801  32.862  0.00  0.00    +0.000 A 
ATOM     23  C7  UNL     1      15.653  35.780  32.165  0.00  0.00    +0.000 A 
ATOM     24  C8  UNL     1      16.380  34.696  31.664  0.00  0.00    +0.000 A 
ATOM     25  C9  UNL     1      17.763  34.633  31.859  0.00  0.00    +0.000 A 
ATOM     26 CL1  UNL     1      18.675  33.276  31.226  0.00  0.00    +0.000 Cl
ATOM     27  C10 UNL     1      18.419  35.654  32.558  0.00  0.00    +0.000 A 
ENDBRANCH   7  21
BRANCH  10  28
ATOM     28  C13 UNL     1      19.953  39.612  37.886  0.00  0.00    +0.000 A 
ATOM     29  C14 UNL     1      19.696  40.805  38.583  0.00  0.00    +0.000 A 
ATOM     30  C15 UNL     1      19.354  40.772  39.938  0.00  0.00    +0.000 A 
ATOM     31  C16 UNL     1      19.278  39.550  40.613  0.00  0.00    +0.000 A 
ATOM     32  C17 UNL     1      19.553  38.359  39.934  0.00  0.00    +0.000 A 
ATOM     33  C18 UNL     1      19.896  38.388  38.579  0.00  0.00    +0.000 A 
ENDBRANCH  10  28
TORSDOF 2
ENDMDL
MODEL 2
REMARK VINA RESULT:    -7.323      4.434      6.037
REMARK INTER + INTRA:          -9.125
REMARK INTER:                  -8.056
REMARK INTRA:                  -1.068
REMARK UNBOUND:                -0.946
REMARK  Name = CNP0054636_2.pdb
REMARK  2 active torsions:
REMARK  status: ('A' for Active; 'I' for Inactive)
REMARK    1  A    between atoms: N1_7  and  C5_8
REMARK    2  A    between atoms: C12_17  and  C13_18
REMARK                            x       y       z     vdW  Elec       q    Type
REMARK                         _______ _______ _______ _____ _____    ______ ____
ROOT
ATOM      1  O1  UNL     1      24.124  35.946  36.642  0.00  0.00    +0.000 OA
ATOM      2  C1  UNL     1      23.394  36.824  36.111  0.00  0.00    +0.000 C 
ATOM      3  C2  UNL     1      21.970  37.081  36.444  0.00  0.00    +0.000 C 
ATOM      4  C3  UNL     1      21.836  38.496  36.000  0.00  0.00    +0.000 C 
ATOM      5  C4  UNL     1      22.638  38.474  34.750  0.00  0.00    +0.000 C 
ATOM      6  O2  UNL     1      22.523  39.284  33.791  0.00  0.00    +0.000 OA
ATOM      7  N1  UNL     1      23.728  37.558  34.923  0.00  0.00    +0.000 N 
ATOM      8  C11 UNL     1      20.365  38.720  36.286  0.00  0.00    +0.000 C 
ATOM      9  O3  UNL     1      20.081  37.980  37.478  0.00  0.00    +0.000 OA
ATOM     10  C12 UNL     1      21.233  37.173  37.761  0.00  0.00    +0.000 C 
ATOM     11  C19 UNL     1      20.026  40.178  36.467  0.00  0.00    +0.000 C 
ATOM     12  O4  UNL     1      20.520  40.930  37.349  0.00  0.00    +0.000 OA
ATOM     13  C20 UNL     1      19.024  40.591  35.495  0.00  0.00    +0.000 A 
ATOM     14  C21 UNL     1      18.436  41.843  35.306  0.00  0.00    +0.000 A 
ATOM     15  C22 UNL     1      17.474  41.980  34.292  0.00  0.00    +0.000 A 
ATOM     16  C23 UNL     1      17.117  40.872  33.495  0.00  0.00    +0.000 A 
ATOM     17  C24 UNL     1      17.723  39.621  33.706  0.00  0.00    +0.000 A 
ATOM     18  C25 UNL     1      18.677  39.513  34.719  0.00  0.00    +0.000 A 
ATOM     19  C26 UNL     1      19.436  38.348  35.151  0.00  0.00    +0.000 C 
ATOM     20  O5  UNL     1      19.308  37.195  34.661  0.00  0.00    +0.000 OA
ENDROOT
BRANCH   7  21
ATOM     21  C5  UNL     1      24.915  37.443  34.118  0.00  0.00    +0.000 A 
ATOM     22  C6  UNL     1      25.031  36.420  33.162  0.00  0.00    +0.000 A 
ATOM     23  C7  UNL     1      26.187  36.307  32.384  0.00  0.00    +0.000 A 
ATOM     24  C8  UNL     1      27.237  37.214  32.551  0.00  0.00    +0.000 A 
ATOM     25  C9  UNL     1      27.131  38.237  33.499  0.00  0.00    +0.000 A 
ATOM     26 CL1  UNL     1      28.446  39.379  33.705  0.00  0.00    +0.000 Cl
ATOM     27  C10 UNL     1      25.975  38.351  34.280  0.00  0.00    +0.000 A 
ENDBRANCH   7  21
BRANCH  10  28
ATOM     28  C13 UNL     1      20.834  35.808  38.268  0.00  0.00    +0.000 A 
ATOM     29  C14 UNL     1      20.929  35.519  39.640  0.00  0.00    +0.000 A 
ATOM     30  C15 UNL     1      20.589  34.250  40.120  0.00  0.00    +0.000 A 
ATOM     31  C16 UNL     1      20.163  33.257  39.234  0.00  0.00    +0.000 A 
ATOM     32  C17 UNL     1      20.086  33.527  37.865  0.00  0.00    +0.000 A 
ATOM     33  C18 UNL     1      20.426  34.794  37.381  0.00  0.00    +0.000 A 
ENDBRANCH  10  28
TORSDOF 2
ENDMDL
MODEL 3
REMARK VINA RESULT:    -7.261      5.143      8.870
REMARK INTER + INTRA:          -9.056
REMARK INTER:                  -8.000
REMARK INTRA:                  -1.056
REMARK UNBOUND:                -0.946
REMARK  Name = CNP0054636_2.pdb
REMARK  2 active torsions:
REMARK  status: ('A' for Active; 'I' for Inactive)
REMARK    1  A    between atoms: N1_7  and  C5_8
REMARK    2  A    between atoms: C12_17  and  C13_18
REMARK                            x       y       z     vdW  Elec       q    Type
REMARK                         _______ _______ _______ _____ _____    ______ ____
ROOT
ATOM      1  O1  UNL     1      19.081  35.635  35.459  0.00  0.00    +0.000 OA
ATOM      2  C1  UNL     1      20.060  35.722  36.246  0.00  0.00    +0.000 C 
ATOM      3  C2  UNL     1      20.537  34.649  37.156  0.00  0.00    +0.000 C 
ATOM      4  C3  UNL     1      21.954  35.066  37.350  0.00  0.00    +0.000 C 
ATOM      5  C4  UNL     1      21.802  36.540  37.449  0.00  0.00    +0.000 C 
ATOM      6  O2  UNL     1      22.615  37.325  38.007  0.00  0.00    +0.000 OA
ATOM      7  N1  UNL     1      20.727  36.947  36.590  0.00  0.00    +0.000 N 
ATOM      8  C11 UNL     1      22.405  34.000  38.328  0.00  0.00    +0.000 C 
ATOM      9  O3  UNL     1      21.723  32.802  37.944  0.00  0.00    +0.000 OA
ATOM     10  C12 UNL     1      20.748  33.166  36.956  0.00  0.00    +0.000 C 
ATOM     11  C19 UNL     1      23.899  33.795  38.313  0.00  0.00    +0.000 C 
ATOM     12  O4  UNL     1      24.569  33.442  37.307  0.00  0.00    +0.000 OA
ATOM     13  C20 UNL     1      24.459  34.037  39.635  0.00  0.00    +0.000 A 
ATOM     14  C21 UNL     1      25.785  33.967  40.062  0.00  0.00    +0.000 A 
ATOM     15  C22 UNL     1      26.066  34.240  41.411  0.00  0.00    +0.000 A 
ATOM     16  C23 UNL     1      25.024  34.570  42.302  0.00  0.00    +0.000 A 
ATOM     17  C24 UNL     1      23.694  34.633  41.847  0.00  0.00    +0.000 A 
ATOM     18  C25 UNL     1      23.443  34.360  40.502  0.00  0.00    +0.000 A 
ATOM     19  C26 UNL     1      22.177  34.341  39.784  0.00  0.00    +0.000 C 
ATOM     20  O5  UNL     1      21.056  34.553  40.318  0.00  0.00    +0.000 OA
ENDROOT
BRANCH   7  21
ATOM     21  C5  UNL     1      20.426  38.276  36.131  0.00  0.00    +0.000 A 
ATOM     22  C6  UNL     1      19.789  39.196  36.982  0.00  0.00    +0.000 A 
ATOM     23  C7  UNL     1      19.492  40.486  36.532  0.00  0.00    +0.000 A 
ATOM     24  C8  UNL     1      19.829  40.871  35.232  0.00  0.00    +0.000 A 
ATOM     25  C9  UNL     1      20.464  39.963  34.377  0.00  0.00    +0.000 A 
ATOM     26 CL1  UNL     1      20.891  40.448  32.747  0.00  0.00    +0.000 Cl
ATOM     27  C10 UNL     1      20.761  38.671  34.825  0.00  0.00    +0.000 A 
ENDBRANCH   7  21
BRANCH  10  28
ATOM     28  C13 UNL     1      19.464  32.394  37.144  0.00  0.00    +0.000 A 
ATOM     29  C14 UNL     1      19.094  31.959  38.428  0.00  0.00    +0.000 A 
ATOM     30  C15 UNL     1      17.922  31.220  38.613  0.00  0.00    +0.000 A 
ATOM     31  C16 UNL     1      17.117  30.896  37.517  0.00  0.00    +0.000 A 
ATOM     32  C17 UNL     1      17.488  31.305  36.233  0.00  0.00    +0.000 A 
ATOM     33  C18 UNL     1      18.660  32.044  36.044  0.00  0.00    +0.000 A 
ENDBRANCH  10  28
TORSDOF 2
ENDMDL
MODEL 4
REMARK VINA RESULT:    -7.153      3.428      4.580
REMARK INTER + INTRA:          -8.935
REMARK INTER:                  -7.870
REMARK INTRA:                  -1.065
REMARK UNBOUND:                -0.946
REMARK  Name = CNP0054636_2.pdb
REMARK  2 active torsions:
REMARK  status: ('A' for Active; 'I' for Inactive)
REMARK    1  A    between atoms: N1_7  and  C5_8
REMARK    2  A    between atoms: C12_17  and  C13_18
REMARK                            x       y       z     vdW  Elec       q    Type
REMARK                         _______ _______ _______ _____ _____    ______ ____
ROOT
ATOM      1  O1  UNL     1      22.691  38.856  35.168  0.00  0.00    +0.000 OA
ATOM      2  C1  UNL     1      21.816  39.395  34.440  0.00  0.00    +0.000 C 
ATOM      3  C2  UNL     1      20.483  39.864  34.895  0.00  0.00    +0.000 C 
ATOM      4  C3  UNL     1      20.177  40.876  33.846  0.00  0.00    +0.000 C 
ATOM      5  C4  UNL     1      20.695  40.188  32.635  0.00  0.00    +0.000 C 
ATOM      6  O2  UNL     1      20.332  40.419  31.450  0.00  0.00    +0.000 OA
ATOM      7  N1  UNL     1      21.847  39.419  33.005  0.00  0.00    +0.000 N 
ATOM      8  C11 UNL     1      18.790  41.296  34.288  0.00  0.00    +0.000 C 
ATOM      9  O3  UNL     1      18.809  41.265  35.719  0.00  0.00    +0.000 OA
ATOM     10  C12 UNL     1      20.039  40.641  36.113  0.00  0.00    +0.000 C 
ATOM     11  C19 UNL     1      18.414  42.668  33.787  0.00  0.00    +0.000 C 
ATOM     12  O4  UNL     1      19.040  43.729  34.049  0.00  0.00    +0.000 OA
ATOM     13  C20 UNL     1      17.206  42.600  32.977  0.00  0.00    +0.000 A 
ATOM     14  C21 UNL     1      16.521  43.623  32.320  0.00  0.00    +0.000 A 
ATOM     15  C22 UNL     1      15.359  43.292  31.603  0.00  0.00    +0.000 A 
ATOM     16  C23 UNL     1      14.905  41.958  31.561  0.00  0.00    +0.000 A 
ATOM     17  C24 UNL     1      15.613  40.945  32.231  0.00  0.00    +0.000 A 
ATOM     18  C25 UNL     1      16.765  41.300  32.934  0.00  0.00    +0.000 A 
ATOM     19  C26 UNL     1      17.664  40.464  33.716  0.00  0.00    +0.000 C 
ATOM     20  O5  UNL     1      17.501  39.229  33.905  0.00  0.00    +0.000 OA
ENDROOT
BRANCH   7  21
ATOM     21  C5  UNL     1      22.840  38.850  32.133  0.00  0.00    +0.000 A 
ATOM     22  C6  UNL     1      22.834  37.475  31.847  0.00  0.00    +0.000 A 
ATOM     23  C7  UNL     1      23.802  36.923  31.003  0.00  0.00    +0.000 A 
ATOM     24  C8  UNL     1      24.785  37.739  30.435  0.00  0.00    +0.000 A 
ATOM     25  C9  UNL     1      24.800  39.110  30.713  0.00  0.00    +0.000 A 
ATOM     26 CL1  UNL     1      26.030  40.135  29.996  0.00  0.00    +0.000 Cl
ATOM     27  C10 UNL     1      23.832  39.664  31.559  0.00  0.00    +0.000 A 
ENDBRANCH   7  21
BRANCH  10  28
ATOM     28  C13 UNL     1      19.836  39.735  37.304  0.00  0.00    +0.000 A 
ATOM     29  C14 UNL     1      19.324  38.441  37.116  0.00  0.00    +0.000 A 
ATOM     30  C15 UNL     1      19.104  37.601  38.212  0.00  0.00    +0.000 A 
ATOM     31  C16 UNL     1      19.381  38.050  39.506  0.00  0.00    +0.000 A 
ATOM     32  C17 UNL     1      19.870  39.344  39.706  0.00  0.00    +0.000 A 
ATOM     33  C18 UNL     1      20.090  40.187  38.613  0.00  0.00    +0.000 A 
ENDBRANCH  10  28
TORSDOF 2
ENDMDL
MODEL 5
REMARK VINA RESULT:    -7.041     10.076     12.919
REMARK INTER + INTRA:          -8.810
REMARK INTER:                  -7.831
REMARK INTRA:                  -0.980
REMARK UNBOUND:                -0.946
REMARK  Name = CNP0054636_2.pdb
REMARK  2 active torsions:
REMARK  status: ('A' for Active; 'I' for Inactive)
REMARK    1  A    between atoms: N1_7  and  C5_8
REMARK    2  A    between atoms: C12_17  and  C13_18
REMARK                            x       y       z     vdW  Elec       q    Type
REMARK                         _______ _______ _______ _____ _____    ______ ____
ROOT
ATOM      1  O1  UNL     1      21.817  48.270  33.351  0.00  0.00    +0.000 OA
ATOM      2  C1  UNL     1      22.524  49.291  33.137  0.00  0.00    +0.000 C 
ATOM      3  C2  UNL     1      23.988  49.391  33.364  0.00  0.00    +0.000 C 
ATOM      4  C3  UNL     1      24.332  50.504  32.436  0.00  0.00    +0.000 C 
ATOM      5  C4  UNL     1      23.171  51.407  32.638  0.00  0.00    +0.000 C 
ATOM      6  O2  UNL     1      23.158  52.646  32.408  0.00  0.00    +0.000 OA
ATOM      7  N1  UNL     1      22.006  50.606  32.882  0.00  0.00    +0.000 N 
ATOM      8  C11 UNL     1      25.814  50.635  32.728  0.00  0.00    +0.000 C 
ATOM      9  O3  UNL     1      26.285  49.305  32.967  0.00  0.00    +0.000 OA
ATOM     10  C12 UNL     1      25.132  48.455  33.051  0.00  0.00    +0.000 C 
ATOM     11  C19 UNL     1      26.572  51.277  31.593  0.00  0.00    +0.000 C 
ATOM     12  O4  UNL     1      26.637  50.823  30.420  0.00  0.00    +0.000 OA
ATOM     13  C20 UNL     1      27.245  52.484  32.050  0.00  0.00    +0.000 A 
ATOM     14  C21 UNL     1      28.042  53.379  31.335  0.00  0.00    +0.000 A 
ATOM     15  C22 UNL     1      28.591  54.476  32.021  0.00  0.00    +0.000 A 
ATOM     16  C23 UNL     1      28.337  54.654  33.396  0.00  0.00    +0.000 A 
ATOM     17  C24 UNL     1      27.531  53.738  34.094  0.00  0.00    +0.000 A 
ATOM     18  C25 UNL     1      26.997  52.658  33.390  0.00  0.00    +0.000 A 
ATOM     19  C26 UNL     1      26.154  51.571  33.866  0.00  0.00    +0.000 C 
ATOM     20  O5  UNL     1      25.789  51.428  35.063  0.00  0.00    +0.000 OA
ENDROOT
BRANCH   7  21
ATOM     21  C5  UNL     1      20.630  51.018  32.826  0.00  0.00    +0.000 A 
ATOM     22  C6  UNL     1      19.827  50.674  31.726  0.00  0.00    +0.000 A 
ATOM     23  C7  UNL     1      18.490  51.080  31.671  0.00  0.00    +0.000 A 
ATOM     24  C8  UNL     1      17.942  51.833  32.714  0.00  0.00    +0.000 A 
ATOM     25  C9  UNL     1      18.733  52.180  33.815  0.00  0.00    +0.000 A 
ATOM     26 CL1  UNL     1      18.043  53.119  35.126  0.00  0.00    +0.000 Cl
ATOM     27  C10 UNL     1      20.071  51.775  33.871  0.00  0.00    +0.000 A 
ENDBRANCH   7  21
BRANCH  10  28
ATOM     28  C13 UNL     1      25.302  47.409  34.127  0.00  0.00    +0.000 A 
ATOM     29  C14 UNL     1      26.002  46.224  33.843  0.00  0.00    +0.000 A 
ATOM     30  C15 UNL     1      26.143  45.235  34.821  0.00  0.00    +0.000 A 
ATOM     31  C16 UNL     1      25.576  45.414  36.086  0.00  0.00    +0.000 A 
ATOM     32  C17 UNL     1      24.860  46.579  36.372  0.00  0.00    +0.000 A 
ATOM     33  C18 UNL     1      24.716  47.570  35.396  0.00  0.00    +0.000 A 
ENDBRANCH  10  28
TORSDOF 2
ENDMDL
MODEL 6
REMARK VINA RESULT:    -6.995      3.973      7.604
REMARK INTER + INTRA:          -8.758
REMARK INTER:                  -7.896
REMARK INTRA:                  -0.862
REMARK UNBOUND:                -0.946
REMARK  Name = CNP0054636_2.pdb
REMARK  2 active torsions:
REMARK  status: ('A' for Active; 'I' for Inactive)
REMARK    1  A    between atoms: N1_7  and  C5_8
REMARK    2  A    between atoms: C12_17  and  C13_18
REMARK                            x       y       z     vdW  Elec       q    Type
REMARK                         _______ _______ _______ _____ _____    ______ ____
ROOT
ATOM      1  O1  UNL     1      18.495  37.046  35.799  0.00  0.00    +0.000 OA
ATOM      2  C1  UNL     1      19.356  36.229  36.222  0.00  0.00    +0.000 C 
ATOM      3  C2  UNL     1      20.123  36.360  37.487  0.00  0.00    +0.000 C 
ATOM      4  C3  UNL     1      20.481  34.936  37.738  0.00  0.00    +0.000 C 
ATOM      5  C4  UNL     1      20.792  34.478  36.359  0.00  0.00    +0.000 C 
ATOM      6  O2  UNL     1      21.520  33.494  36.061  0.00  0.00    +0.000 OA
ATOM      7  N1  UNL     1      19.928  35.167  35.444  0.00  0.00    +0.000 N 
ATOM      8  C11 UNL     1      21.316  35.096  38.992  0.00  0.00    +0.000 C 
ATOM      9  O3  UNL     1      20.705  36.155  39.737  0.00  0.00    +0.000 OA
ATOM     10  C12 UNL     1      19.716  36.755  38.888  0.00  0.00    +0.000 C 
ATOM     11  C19 UNL     1      21.379  33.832  39.811  0.00  0.00    +0.000 C 
ATOM     12  O4  UNL     1      20.381  33.242  40.306  0.00  0.00    +0.000 OA
ATOM     13  C20 UNL     1      22.759  33.399  39.975  0.00  0.00    +0.000 A 
ATOM     14  C21 UNL     1      23.265  32.287  40.648  0.00  0.00    +0.000 A 
ATOM     15  C22 UNL     1      24.657  32.097  40.668  0.00  0.00    +0.000 A 
ATOM     16  C23 UNL     1      25.509  33.016  40.022  0.00  0.00    +0.000 A 
ATOM     17  C24 UNL     1      24.975  34.130  39.350  0.00  0.00    +0.000 A 
ATOM     18  C25 UNL     1      23.589  34.294  39.345  0.00  0.00    +0.000 A 
ATOM     19  C26 UNL     1      22.786  35.350  38.745  0.00  0.00    +0.000 C 
ATOM     20  O5  UNL     1      23.263  36.343  38.134  0.00  0.00    +0.000 OA
ENDROOT
BRANCH   7  21
ATOM     21  C5  UNL     1      19.657  34.831  34.072  0.00  0.00    +0.000 A 
ATOM     22  C6  UNL     1      20.560  35.191  33.058  0.00  0.00    +0.000 A 
ATOM     23  C7  UNL     1      20.292  34.867  31.724  0.00  0.00    +0.000 A 
ATOM     24  C8  UNL     1      19.121  34.182  31.391  0.00  0.00    +0.000 A 
ATOM     25  C9  UNL     1      18.215  33.818  32.393  0.00  0.00    +0.000 A 
ATOM     26 CL1  UNL     1      16.748  32.953  31.974  0.00  0.00    +0.000 Cl
ATOM     27  C10 UNL     1      18.481  34.142  33.728  0.00  0.00    +0.000 A 
ENDBRANCH   7  21
BRANCH  10  28
ATOM     28  C13 UNL     1      19.691  38.256  39.054  0.00  0.00    +0.000 A 
ATOM     29  C14 UNL     1      19.241  38.816  40.262  0.00  0.00    +0.000 A 
ATOM     30  C15 UNL     1      19.186  40.204  40.420  0.00  0.00    +0.000 A 
ATOM     31  C16 UNL     1      19.567  41.045  39.370  0.00  0.00    +0.000 A 
ATOM     32  C17 UNL     1      19.995  40.498  38.158  0.00  0.00    +0.000 A 
ATOM     33  C18 UNL     1      20.051  39.110  37.995  0.00  0.00    +0.000 A 
ENDBRANCH  10  28
TORSDOF 2
ENDMDL
MODEL 7
REMARK VINA RESULT:    -6.901      3.334      6.934
REMARK INTER + INTRA:          -8.654
REMARK INTER:                  -7.605
REMARK INTRA:                  -1.049
REMARK UNBOUND:                -0.946
REMARK  Name = CNP0054636_2.pdb
REMARK  2 active torsions:
REMARK  status: ('A' for Active; 'I' for Inactive)
REMARK    1  A    between atoms: N1_7  and  C5_8
REMARK    2  A    between atoms: C12_17  and  C13_18
REMARK                            x       y       z     vdW  Elec       q    Type
REMARK                         _______ _______ _______ _____ _____    ______ ____
ROOT
ATOM      1  O1  UNL     1      21.349  39.639  31.040  0.00  0.00    +0.000 OA
ATOM      2  C1  UNL     1      21.354  39.377  32.272  0.00  0.00    +0.000 C 
ATOM      3  C2  UNL     1      20.258  39.686  33.225  0.00  0.00    +0.000 C 
ATOM      4  C3  UNL     1      20.532  38.682  34.291  0.00  0.00    +0.000 C 
ATOM      5  C4  UNL     1      22.015  38.725  34.342  0.00  0.00    +0.000 C 
ATOM      6  O2  UNL     1      22.725  38.380  35.324  0.00  0.00    +0.000 OA
ATOM      7  N1  UNL     1      22.511  38.968  33.017  0.00  0.00    +0.000 N 
ATOM      8  C11 UNL     1      19.447  39.054  35.281  0.00  0.00    +0.000 C 
ATOM      9  O3  UNL     1      18.316  39.446  34.496  0.00  0.00    +0.000 OA
ATOM     10  C12 UNL     1      18.757  39.535  33.133  0.00  0.00    +0.000 C 
ATOM     11  C19 UNL     1      19.091  37.916  36.204  0.00  0.00    +0.000 C 
ATOM     12  O4  UNL     1      18.649  36.797  35.832  0.00  0.00    +0.000 OA
ATOM     13  C20 UNL     1      19.302  38.301  37.592  0.00  0.00    +0.000 A 
ATOM     14  C21 UNL     1      19.107  37.558  38.757  0.00  0.00    +0.000 A 
ATOM     15  C22 UNL     1      19.379  38.172  39.991  0.00  0.00    +0.000 A 
ATOM     16  C23 UNL     1      19.834  39.506  40.037  0.00  0.00    +0.000 A 
ATOM     17  C24 UNL     1      20.022  40.233  38.849  0.00  0.00    +0.000 A 
ATOM     18  C25 UNL     1      19.746  39.600  37.636  0.00  0.00    +0.000 A 
ATOM     19  C26 UNL     1      19.841  40.120  36.280  0.00  0.00    +0.000 C 
ATOM     20  O5  UNL     1      20.178  41.299  35.994  0.00  0.00    +0.000 OA
ENDROOT
BRANCH   7  21
ATOM     21  C5  UNL     1      23.854  38.786  32.536  0.00  0.00    +0.000 A 
ATOM     22  C6  UNL     1      24.854  39.723  32.844  0.00  0.00    +0.000 A 
ATOM     23  C7  UNL     1      26.158  39.547  32.371  0.00  0.00    +0.000 A 
ATOM     24  C8  UNL     1      26.475  38.434  31.587  0.00  0.00    +0.000 A 
ATOM     25  C9  UNL     1      25.487  37.494  31.275  0.00  0.00    +0.000 A 
ATOM     26 CL1  UNL     1      25.887  36.095  30.296  0.00  0.00    +0.000 Cl
ATOM     27  C10 UNL     1      24.181  37.670  31.747  0.00  0.00    +0.000 A 
ENDBRANCH   7  21
BRANCH  10  28
ATOM     28  C13 UNL     1      18.124  40.712  32.430  0.00  0.00    +0.000 A 
ATOM     29  C14 UNL     1      17.652  41.802  33.182  0.00  0.00    +0.000 A 
ATOM     30  C15 UNL     1      17.039  42.886  32.547  0.00  0.00    +0.000 A 
ATOM     31  C16 UNL     1      16.880  42.886  31.158  0.00  0.00    +0.000 A 
ATOM     32  C17 UNL     1      17.326  41.798  30.403  0.00  0.00    +0.000 A 
ATOM     33  C18 UNL     1      17.939  40.711  31.035  0.00  0.00    +0.000 A 
ENDBRANCH  10  28
TORSDOF 2
ENDMDL
MODEL 8
REMARK VINA RESULT:    -6.725      5.432      8.848
REMARK INTER + INTRA:          -8.457
REMARK INTER:                  -7.449
REMARK INTRA:                  -1.008
REMARK UNBOUND:                -0.946
REMARK  Name = CNP0054636_2.pdb
REMARK  2 active torsions:
REMARK  status: ('A' for Active; 'I' for Inactive)
REMARK    1  A    between atoms: N1_7  and  C5_8
REMARK    2  A    between atoms: C12_17  and  C13_18
REMARK                            x       y       z     vdW  Elec       q    Type
REMARK                         _______ _______ _______ _____ _____    ______ ____
ROOT
ATOM      1  O1  UNL     1      22.588  38.361  35.460  0.00  0.00    +0.000 OA
ATOM      2  C1  UNL     1      22.574  37.176  35.888  0.00  0.00    +0.000 C 
ATOM      3  C2  UNL     1      21.698  36.658  36.968  0.00  0.00    +0.000 C 
ATOM      4  C3  UNL     1      21.684  35.206  36.635  0.00  0.00    +0.000 C 
ATOM      5  C4  UNL     1      23.099  34.997  36.235  0.00  0.00    +0.000 C 
ATOM      6  O2  UNL     1      23.708  33.894  36.249  0.00  0.00    +0.000 OA
ATOM      7  N1  UNL     1      23.571  36.187  35.589  0.00  0.00    +0.000 N 
ATOM      8  C11 UNL     1      20.840  34.686  37.782  0.00  0.00    +0.000 C 
ATOM      9  O3  UNL     1      19.861  35.697  38.038  0.00  0.00    +0.000 OA
ATOM     10  C12 UNL     1      20.229  36.850  37.266  0.00  0.00    +0.000 C 
ATOM     11  C19 UNL     1      20.180  33.368  37.463  0.00  0.00    +0.000 C 
ATOM     12  O4  UNL     1      19.373  33.176  36.515  0.00  0.00    +0.000 OA
ATOM     13  C20 UNL     1      20.584  32.351  38.423  0.00  0.00    +0.000 A 
ATOM     14  C21 UNL     1      20.220  31.006  38.494  0.00  0.00    +0.000 A 
ATOM     15  C22 UNL     1      20.749  30.229  39.539  0.00  0.00    +0.000 A 
ATOM     16  C23 UNL     1      21.621  30.806  40.485  0.00  0.00    +0.000 A 
ATOM     17  C24 UNL     1      21.972  32.164  40.391  0.00  0.00    +0.000 A 
ATOM     18  C25 UNL     1      21.435  32.913  39.343  0.00  0.00    +0.000 A 
ATOM     19  C26 UNL     1      21.620  34.322  39.026  0.00  0.00    +0.000 C 
ATOM     20  O5  UNL     1      22.311  35.120  39.713  0.00  0.00    +0.000 OA
ENDROOT
BRANCH   7  21
ATOM     21  C5  UNL     1      24.749  36.336  34.777  0.00  0.00    +0.000 A 
ATOM     22  C6  UNL     1      24.698  36.092  33.395  0.00  0.00    +0.000 A 
ATOM     23  C7  UNL     1      25.846  36.232  32.608  0.00  0.00    +0.000 A 
ATOM     24  C8  UNL     1      27.054  36.620  33.194  0.00  0.00    +0.000 A 
ATOM     25  C9  UNL     1      27.116  36.867  34.570  0.00  0.00    +0.000 A 
ATOM     26 CL1  UNL     1      28.631  37.358  35.303  0.00  0.00    +0.000 Cl
ATOM     27  C10 UNL     1      25.968  36.725  35.359  0.00  0.00    +0.000 A 
ENDBRANCH   7  21
BRANCH  10  28
ATOM     28  C13 UNL     1      19.982  38.125  38.037  0.00  0.00    +0.000 A 
ATOM     29  C14 UNL     1      19.999  39.359  37.366  0.00  0.00    +0.000 A 
ATOM     30  C15 UNL     1      19.799  40.550  38.072  0.00  0.00    +0.000 A 
ATOM     31  C16 UNL     1      19.595  40.520  39.454  0.00  0.00    +0.000 A 
ATOM     32  C17 UNL     1      19.599  39.299  40.134  0.00  0.00    +0.000 A 
ATOM     33  C18 UNL     1      19.798  38.106  39.432  0.00  0.00    +0.000 A 
ENDBRANCH  10  28
TORSDOF 2
ENDMDL
MODEL 9
REMARK VINA RESULT:    -6.679      6.381      9.158
REMARK INTER + INTRA:          -8.406
REMARK INTER:                  -7.563
REMARK INTRA:                  -0.844
REMARK UNBOUND:                -0.946
REMARK  Name = CNP0054636_2.pdb
REMARK  2 active torsions:
REMARK  status: ('A' for Active; 'I' for Inactive)
REMARK    1  A    between atoms: N1_7  and  C5_8
REMARK    2  A    between atoms: C12_17  and  C13_18
REMARK                            x       y       z     vdW  Elec       q    Type
REMARK                         _______ _______ _______ _____ _____    ______ ____
ROOT
ATOM      1  O1  UNL     1      23.779  32.523  40.302  0.00  0.00    +0.000 OA
ATOM      2  C1  UNL     1      23.429  33.569  39.694  0.00  0.00    +0.000 C 
ATOM      3  C2  UNL     1      22.084  33.824  39.118  0.00  0.00    +0.000 C 
ATOM      4  C3  UNL     1      22.079  35.313  39.089  0.00  0.00    +0.000 C 
ATOM      5  C4  UNL     1      23.476  35.591  38.667  0.00  0.00    +0.000 C 
ATOM      6  O2  UNL     1      23.876  36.648  38.110  0.00  0.00    +0.000 OA
ATOM      7  N1  UNL     1      24.330  34.585  39.228  0.00  0.00    +0.000 N 
ATOM      8  C11 UNL     1      20.730  35.555  38.441  0.00  0.00    +0.000 C 
ATOM      9  O3  UNL     1      19.867  34.527  38.939  0.00  0.00    +0.000 OA
ATOM     10  C12 UNL     1      20.689  33.590  39.649  0.00  0.00    +0.000 C 
ATOM     11  C19 UNL     1      20.174  36.921  38.754  0.00  0.00    +0.000 C 
ATOM     12  O4  UNL     1      19.921  37.349  39.911  0.00  0.00    +0.000 OA
ATOM     13  C20 UNL     1      19.942  37.669  37.527  0.00  0.00    +0.000 A 
ATOM     14  C21 UNL     1      19.446  38.962  37.358  0.00  0.00    +0.000 A 
ATOM     15  C22 UNL     1      19.306  39.455  36.049  0.00  0.00    +0.000 A 
ATOM     16  C23 UNL     1      19.657  38.652  34.945  0.00  0.00    +0.000 A 
ATOM     17  C24 UNL     1      20.154  37.352  35.142  0.00  0.00    +0.000 A 
ATOM     18  C25 UNL     1      20.285  36.887  36.451  0.00  0.00    +0.000 A 
ATOM     19  C26 UNL     1      20.754  35.594  36.929  0.00  0.00    +0.000 C 
ATOM     20  O5  UNL     1      21.099  34.643  36.179  0.00  0.00    +0.000 OA
ENDROOT
BRANCH   7  21
ATOM     21  C5  UNL     1      25.764  34.617  39.347  0.00  0.00    +0.000 A 
ATOM     22  C6  UNL     1      26.562  33.753  38.580  0.00  0.00    +0.000 A 
ATOM     23  C7  UNL     1      27.955  33.783  38.701  0.00  0.00    +0.000 A 
ATOM     24  C8  UNL     1      28.563  34.676  39.587  0.00  0.00    +0.000 A 
ATOM     25  C9  UNL     1      27.777  35.542  40.355  0.00  0.00    +0.000 A 
ATOM     26 CL1  UNL     1      28.541  36.666  41.463  0.00  0.00    +0.000 Cl
ATOM     27  C10 UNL     1      26.383  35.512  40.237  0.00  0.00    +0.000 A 
ENDBRANCH   7  21
BRANCH  10  28
ATOM     28  C13 UNL     1      20.235  32.170  39.405  0.00  0.00    +0.000 A 
ATOM     29  C14 UNL     1      20.890  31.108  40.050  0.00  0.00    +0.000 A 
ATOM     30  C15 UNL     1      20.499  29.787  39.812  0.00  0.00    +0.000 A 
ATOM     31  C16 UNL     1      19.460  29.514  38.918  0.00  0.00    +0.000 A 
ATOM     32  C17 UNL     1      18.816  30.562  38.255  0.00  0.00    +0.000 A 
ATOM     33  C18 UNL     1      19.205  31.884  38.490  0.00  0.00    +0.000 A 
ENDBRANCH  10  28
TORSDOF 2
ENDMDL
MODEL 10
REMARK VINA RESULT:    -6.637      3.553      6.347
REMARK INTER + INTRA:          -8.359
REMARK INTER:                  -7.408
REMARK INTRA:                  -0.951
REMARK UNBOUND:                -0.946
REMARK  Name = CNP0054636_2.pdb
REMARK  2 active torsions:
REMARK  status: ('A' for Active; 'I' for Inactive)
REMARK    1  A    between atoms: N1_7  and  C5_8
REMARK    2  A    between atoms: C12_17  and  C13_18
REMARK                            x       y       z     vdW  Elec       q    Type
REMARK                         _______ _______ _______ _____ _____    ______ ____
ROOT
ATOM      1  O1  UNL     1      18.165  41.631  35.465  0.00  0.00    +0.000 OA
ATOM      2  C1  UNL     1      18.942  41.056  34.658  0.00  0.00    +0.000 C 
ATOM      3  C2  UNL     1      19.684  39.797  34.921  0.00  0.00    +0.000 C 
ATOM      4  C3  UNL     1      19.914  39.319  33.529  0.00  0.00    +0.000 C 
ATOM      5  C4  UNL     1      20.221  40.599  32.840  0.00  0.00    +0.000 C 
ATOM      6  O2  UNL     1      20.870  40.716  31.767  0.00  0.00    +0.000 OA
ATOM      7  N1  UNL     1      19.443  41.641  33.447  0.00  0.00    +0.000 N 
ATOM      8  C11 UNL     1      20.725  38.072  33.813  0.00  0.00    +0.000 C 
ATOM      9  O3  UNL     1      20.187  37.521  35.019  0.00  0.00    +0.000 OA
ATOM     10  C12 UNL     1      19.275  38.489  35.558  0.00  0.00    +0.000 C 
ATOM     11  C19 UNL     1      20.659  37.069  32.689  0.00  0.00    +0.000 C 
ATOM     12  O4  UNL     1      19.603  36.530  32.265  0.00  0.00    +0.000 OA
ATOM     13  C20 UNL     1      21.993  36.788  32.179  0.00  0.00    +0.000 A 
ATOM     14  C21 UNL     1      22.385  35.934  31.147  0.00  0.00    +0.000 A 
ATOM     15  C22 UNL     1      23.756  35.832  30.853  0.00  0.00    +0.000 A 
ATOM     16  C23 UNL     1      24.699  36.576  31.591  0.00  0.00    +0.000 A 
ATOM     17  C24 UNL     1      24.278  37.429  32.626  0.00  0.00    +0.000 A 
ATOM     18  C25 UNL     1      22.912  37.513  32.897  0.00  0.00    +0.000 A 
ATOM     19  C26 UNL     1      22.218  38.297  33.909  0.00  0.00    +0.000 C 
ATOM     20  O5  UNL     1      22.793  39.032  34.755  0.00  0.00    +0.000 OA
ENDROOT
BRANCH   7  21
ATOM     21  C5  UNL     1      19.181  42.956  32.926  0.00  0.00    +0.000 A 
ATOM     22  C6  UNL     1      17.987  43.224  32.235  0.00  0.00    +0.000 A 
ATOM     23  C7  UNL     1      17.736  44.501  31.725  0.00  0.00    +0.000 A 
ATOM     24  C8  UNL     1      18.673  45.523  31.901  0.00  0.00    +0.000 A 
ATOM     25  C9  UNL     1      19.864  45.268  32.589  0.00  0.00    +0.000 A 
ATOM     26 CL1  UNL     1      21.036  46.552  32.815  0.00  0.00    +0.000 Cl
ATOM     27  C10 UNL     1      20.118  43.989  33.099  0.00  0.00    +0.000 A 
ENDBRANCH   7  21
BRANCH  10  28
ATOM     28  C13 UNL     1      19.372  38.552  37.064  0.00  0.00    +0.000 A 
ATOM     29  C14 UNL     1      20.026  39.636  37.675  0.00  0.00    +0.000 A 
ATOM     30  C15 UNL     1      20.148  39.694  39.067  0.00  0.00    +0.000 A 
ATOM     31  C16 UNL     1      19.629  38.666  39.859  0.00  0.00    +0.000 A 
ATOM     32  C17 UNL     1      18.996  37.573  39.260  0.00  0.00    +0.000 A 
ATOM     33  C18 UNL     1      18.873  37.511  37.869  0.00  0.00    +0.000 A 
ENDBRANCH  10  28
TORSDOF 2
ENDMDL
