MODEL 1
REMARK VINA RESULT:    -8.537      0.000      0.000
REMARK INTER + INTRA:         -11.552
REMARK INTER:                 -10.534
REMARK INTRA:                  -1.018
REMARK UNBOUND:                -1.018
REMARK  Name = CNP0172172_2.pdb
REMARK  5 active torsions:
REMARK  status: ('A' for Active; 'I' for Inactive)
REMARK    1  A    between atoms: C1_1  and  O1_2
REMARK    2  A    between atoms: O1_2  and  C2_3
REMARK    3  A    between atoms: C5_6  and  C6_7
REMARK    4  A    between atoms: C18_20  and  C19_21
REMARK    5  A    between atoms: C19_21  and  N1_22
REMARK                            x       y       z     vdW  Elec       q    Type
REMARK                         _______ _______ _______ _____ _____    ______ ____
ROOT
ATOM      1  C2  UNL     1      61.618  57.203  72.170  0.00  0.00    +0.000 A 
ATOM      2  C3  UNL     1      62.926  57.280  72.688  0.00  0.00    +0.000 A 
ATOM      3  C4  UNL     1      63.676  56.121  72.896  0.00  0.00    +0.000 A 
ATOM      4  C5  UNL     1      63.147  54.866  72.569  0.00  0.00    +0.000 A 
ATOM      5  C17 UNL     1      61.847  54.780  72.057  0.00  0.00    +0.000 A 
ATOM      6  C18 UNL     1      61.074  55.938  71.856  0.00  0.00    +0.000 A 
ENDROOT
BRANCH   4   7
ATOM      7  C6  UNL     1      63.887  53.622  72.872  0.00  0.00    +0.000 C 
ATOM      8  C7  UNL     1      63.839  52.962  74.049  0.00  0.00    +0.000 C 
ATOM      9  C8  UNL     1      63.073  53.488  75.248  0.00  0.00    +0.000 C 
ATOM     10  C9  UNL     1      63.784  53.140  76.564  0.00  0.00    +0.000 C 
ATOM     11  C10 UNL     1      64.103  51.668  76.653  0.00  0.00    +0.000 A 
ATOM     12  C11 UNL     1      64.106  51.022  77.901  0.00  0.00    +0.000 A 
ATOM     13  C12 UNL     1      64.478  49.680  77.999  0.00  0.00    +0.000 A 
ATOM     14  C13 UNL     1      64.872  48.977  76.861  0.00  0.00    +0.000 A 
ATOM     15  C14 UNL     1      64.890  49.612  75.615  0.00  0.00    +0.000 A 
ATOM     16  C15 UNL     1      64.509  50.961  75.501  0.00  0.00    +0.000 A 
ATOM     17  C16 UNL     1      64.506  51.642  74.187  0.00  0.00    +0.000 C 
ATOM     18  O2  UNL     1      65.057  51.095  73.191  0.00  0.00    +0.000 OA
ENDBRANCH   4   7
BRANCH   1  20
ATOM     19  C1  UNL     1      61.027  59.290  70.911  0.00  0.00    +0.000 C 
ATOM     20  O1  UNL     1      60.838  58.353  71.971  0.00  0.00    +0.000 OA
ENDBRANCH   1  20
BRANCH   6  21
ATOM     21  C19 UNL     1      59.683  55.799  71.276  0.00  0.00    +0.000 C 
BRANCH  21  22
ATOM     22  N1  UNL     1      59.762  55.490  69.830  0.00  0.00    +0.000 NA
ATOM     23  C20 UNL     1      59.300  54.122  69.502  0.00  0.00    +0.000 C 
ATOM     24  C21 UNL     1      57.755  54.004  69.298  0.00  0.00    +0.000 C 
ATOM     25  C22 UNL     1      57.053  55.363  69.321  0.00  0.00    +0.000 C 
ATOM     26  C23 UNL     1      57.816  56.269  68.367  0.00  0.00    +0.000 C 
ATOM     27  C24 UNL     1      59.235  56.552  68.931  0.00  0.00    +0.000 C 
ATOM     28  C25 UNL     1      57.892  55.633  66.985  0.00  0.00    +0.000 A 
ATOM     29  C26 UNL     1      58.152  56.468  65.887  0.00  0.00    +0.000 A 
ATOM     30  C27 UNL     1      58.299  55.918  64.619  0.00  0.00    +0.000 A 
ATOM     31  C28 UNL     1      58.183  54.543  64.444  0.00  0.00    +0.000 A 
ATOM     32  C29 UNL     1      57.919  53.724  65.545  0.00  0.00    +0.000 A 
ATOM     33  O3  UNL     1      57.793  52.482  65.359  0.00  0.00    +0.000 OA
ATOM     34  N2  UNL     1      57.788  54.264  66.805  0.00  0.00    +0.000 N 
ATOM     35  C30 UNL     1      57.449  53.363  67.933  0.00  0.00    +0.000 C 
ENDBRANCH  21  22
ENDBRANCH   6  21
TORSDOF 4
ENDMDL
MODEL 2
REMARK VINA RESULT:    -8.263      3.799      7.309
REMARK INTER + INTRA:         -11.214
REMARK INTER:                 -10.313
REMARK INTRA:                  -0.901
REMARK UNBOUND:                -1.018
REMARK  Name = CNP0172172_2.pdb
REMARK  5 active torsions:
REMARK  status: ('A' for Active; 'I' for Inactive)
REMARK    1  A    between atoms: C1_1  and  O1_2
REMARK    2  A    between atoms: O1_2  and  C2_3
REMARK    3  A    between atoms: C5_6  and  C6_7
REMARK    4  A    between atoms: C18_20  and  C19_21
REMARK    5  A    between atoms: C19_21  and  N1_22
REMARK                            x       y       z     vdW  Elec       q    Type
REMARK                         _______ _______ _______ _____ _____    ______ ____
ROOT
ATOM      1  C2  UNL     1      64.663  50.741  75.416  0.00  0.00    +0.000 A 
ATOM      2  C3  UNL     1      64.816  50.204  76.710  0.00  0.00    +0.000 A 
ATOM      3  C4  UNL     1      64.303  50.874  77.821  0.00  0.00    +0.000 A 
ATOM      4  C5  UNL     1      63.606  52.079  77.663  0.00  0.00    +0.000 A 
ATOM      5  C17 UNL     1      63.452  52.621  76.382  0.00  0.00    +0.000 A 
ATOM      6  C18 UNL     1      63.977  51.965  75.254  0.00  0.00    +0.000 A 
ENDROOT
BRANCH   4   7
ATOM      7  C6  UNL     1      63.140  52.852  78.835  0.00  0.00    +0.000 C 
ATOM      8  C7  UNL     1      61.854  53.182  79.079  0.00  0.00    +0.000 C 
ATOM      9  C8  UNL     1      60.732  52.866  78.108  0.00  0.00    +0.000 C 
ATOM     10  C9  UNL     1      59.659  53.965  78.115  0.00  0.00    +0.000 C 
ATOM     11  C10 UNL     1      59.177  54.265  79.513  0.00  0.00    +0.000 A 
ATOM     12  C11 UNL     1      57.848  54.667  79.729  0.00  0.00    +0.000 A 
ATOM     13  C12 UNL     1      57.418  55.023  81.009  0.00  0.00    +0.000 A 
ATOM     14  C13 UNL     1      58.313  55.004  82.079  0.00  0.00    +0.000 A 
ATOM     15  C14 UNL     1      59.643  54.622  81.876  0.00  0.00    +0.000 A 
ATOM     16  C15 UNL     1      60.086  54.253  80.593  0.00  0.00    +0.000 A 
ATOM     17  C16 UNL     1      61.486  53.830  80.364  0.00  0.00    +0.000 C 
ATOM     18  O2  UNL     1      62.355  54.009  81.264  0.00  0.00    +0.000 OA
ENDBRANCH   4   7
BRANCH   1  20
ATOM     19  C1  UNL     1      66.543  49.671  74.147  0.00  0.00    +0.000 C 
ATOM     20  O1  UNL     1      65.187  50.094  74.285  0.00  0.00    +0.000 OA
ENDBRANCH   1  20
BRANCH   6  21
ATOM     21  C19 UNL     1      63.764  52.575  73.886  0.00  0.00    +0.000 C 
BRANCH  21  22
ATOM     22  N1  UNL     1      62.751  53.653  73.961  0.00  0.00    +0.000 NA
ATOM     23  C20 UNL     1      63.280  54.977  73.561  0.00  0.00    +0.000 C 
ATOM     24  C21 UNL     1      63.239  55.239  72.021  0.00  0.00    +0.000 C 
ATOM     25  C22 UNL     1      62.508  54.135  71.254  0.00  0.00    +0.000 C 
ATOM     26  C23 UNL     1      61.181  53.913  71.960  0.00  0.00    +0.000 C 
ATOM     27  C24 UNL     1      61.427  53.313  73.372  0.00  0.00    +0.000 C 
ATOM     28  C25 UNL     1      60.407  55.222  72.049  0.00  0.00    +0.000 A 
ATOM     29  C26 UNL     1      59.019  55.157  72.253  0.00  0.00    +0.000 A 
ATOM     30  C27 UNL     1      58.287  56.328  72.410  0.00  0.00    +0.000 A 
ATOM     31  C28 UNL     1      58.933  57.559  72.358  0.00  0.00    +0.000 A 
ATOM     32  C29 UNL     1      60.313  57.609  72.148  0.00  0.00    +0.000 A 
ATOM     33  O3  UNL     1      60.875  58.738  72.079  0.00  0.00    +0.000 OA
ATOM     34  N2  UNL     1      61.044  56.451  72.008  0.00  0.00    +0.000 N 
ATOM     35  C30 UNL     1      62.497  56.555  71.728  0.00  0.00    +0.000 C 
ENDBRANCH  21  22
ENDBRANCH   6  21
TORSDOF 4
ENDMDL
MODEL 3
REMARK VINA RESULT:    -8.109      5.124      7.224
REMARK INTER + INTRA:         -11.023
REMARK INTER:                  -9.859
REMARK INTRA:                  -1.164
REMARK UNBOUND:                -1.018
REMARK  Name = CNP0172172_2.pdb
REMARK  5 active torsions:
REMARK  status: ('A' for Active; 'I' for Inactive)
REMARK    1  A    between atoms: C1_1  and  O1_2
REMARK    2  A    between atoms: O1_2  and  C2_3
REMARK    3  A    between atoms: C5_6  and  C6_7
REMARK    4  A    between atoms: C18_20  and  C19_21
REMARK    5  A    between atoms: C19_21  and  N1_22
REMARK                            x       y       z     vdW  Elec       q    Type
REMARK                         _______ _______ _______ _____ _____    ______ ____
ROOT
ATOM      1  C2  UNL     1      55.532  53.289  74.274  0.00  0.00    +0.000 A 
ATOM      2  C3  UNL     1      55.290  52.370  75.314  0.00  0.00    +0.000 A 
ATOM      3  C4  UNL     1      55.544  52.718  76.642  0.00  0.00    +0.000 A 
ATOM      4  C5  UNL     1      56.021  53.996  76.962  0.00  0.00    +0.000 A 
ATOM      5  C17 UNL     1      56.267  54.914  75.934  0.00  0.00    +0.000 A 
ATOM      6  C18 UNL     1      56.030  54.572  74.590  0.00  0.00    +0.000 A 
ENDROOT
BRANCH   4   7
ATOM      7  C6  UNL     1      56.387  54.350  78.350  0.00  0.00    +0.000 C 
ATOM      8  C7  UNL     1      57.641  54.315  78.849  0.00  0.00    +0.000 C 
ATOM      9  C8  UNL     1      58.825  53.810  78.048  0.00  0.00    +0.000 C 
ATOM     10  C9  UNL     1      59.838  53.083  78.944  0.00  0.00    +0.000 C 
ATOM     11  C10 UNL     1      60.233  53.923  80.134  0.00  0.00    +0.000 A 
ATOM     12  C11 UNL     1      61.527  53.818  80.671  0.00  0.00    +0.000 A 
ATOM     13  C12 UNL     1      61.873  54.532  81.821  0.00  0.00    +0.000 A 
ATOM     14  C13 UNL     1      60.927  55.337  82.457  0.00  0.00    +0.000 A 
ATOM     15  C14 UNL     1      59.630  55.437  81.943  0.00  0.00    +0.000 A 
ATOM     16  C15 UNL     1      59.273  54.729  80.781  0.00  0.00    +0.000 A 
ATOM     17  C16 UNL     1      57.909  54.837  80.214  0.00  0.00    +0.000 C 
ATOM     18  O2  UNL     1      56.988  55.382  80.885  0.00  0.00    +0.000 OA
ENDBRANCH   4   7
BRANCH   1  20
ATOM     19  C1  UNL     1      56.153  52.120  72.144  0.00  0.00    +0.000 C 
ATOM     20  O1  UNL     1      55.303  52.955  72.930  0.00  0.00    +0.000 OA
ENDBRANCH   1  20
BRANCH   6  21
ATOM     21  C19 UNL     1      56.287  55.606  73.515  0.00  0.00    +0.000 C 
BRANCH  21  22
ATOM     22  N1  UNL     1      57.709  56.022  73.537  0.00  0.00    +0.000 NA
ATOM     23  C20 UNL     1      58.642  54.916  73.219  0.00  0.00    +0.000 C 
ATOM     24  C21 UNL     1      58.875  54.701  71.689  0.00  0.00    +0.000 C 
ATOM     25  C22 UNL     1      58.214  55.784  70.835  0.00  0.00    +0.000 C 
ATOM     26  C23 UNL     1      58.630  57.123  71.422  0.00  0.00    +0.000 C 
ATOM     27  C24 UNL     1      58.001  57.299  72.831  0.00  0.00    +0.000 C 
ATOM     28  C25 UNL     1      60.149  57.222  71.483  0.00  0.00    +0.000 A 
ATOM     29  C26 UNL     1      60.725  58.499  71.571  0.00  0.00    +0.000 A 
ATOM     30  C27 UNL     1      62.102  58.630  71.700  0.00  0.00    +0.000 A 
ATOM     31  C28 UNL     1      62.904  57.494  71.736  0.00  0.00    +0.000 A 
ATOM     32  C29 UNL     1      62.318  56.229  71.642  0.00  0.00    +0.000 A 
ATOM     33  O3  UNL     1      63.066  55.212  71.652  0.00  0.00    +0.000 OA
ATOM     34  N2  UNL     1      60.952  56.095  71.530  0.00  0.00    +0.000 N 
ATOM     35  C30 UNL     1      60.381  54.735  71.374  0.00  0.00    +0.000 C 
ENDBRANCH  21  22
ENDBRANCH   6  21
TORSDOF 4
ENDMDL
MODEL 4
REMARK VINA RESULT:    -8.026      4.157     10.384
REMARK INTER + INTRA:         -10.921
REMARK INTER:                 -10.131
REMARK INTRA:                  -0.790
REMARK UNBOUND:                -1.018
REMARK  Name = CNP0172172_2.pdb
REMARK  5 active torsions:
REMARK  status: ('A' for Active; 'I' for Inactive)
REMARK    1  A    between atoms: C1_1  and  O1_2
REMARK    2  A    between atoms: O1_2  and  C2_3
REMARK    3  A    between atoms: C5_6  and  C6_7
REMARK    4  A    between atoms: C18_20  and  C19_21
REMARK    5  A    between atoms: C19_21  and  N1_22
REMARK                            x       y       z     vdW  Elec       q    Type
REMARK                         _______ _______ _______ _____ _____    ______ ____
ROOT
ATOM      1  C2  UNL     1      63.711  51.109  74.746  0.00  0.00    +0.000 A 
ATOM      2  C3  UNL     1      63.900  51.394  73.380  0.00  0.00    +0.000 A 
ATOM      3  C4  UNL     1      63.961  52.715  72.933  0.00  0.00    +0.000 A 
ATOM      4  C5  UNL     1      63.859  53.776  73.841  0.00  0.00    +0.000 A 
ATOM      5  C17 UNL     1      63.668  53.502  75.200  0.00  0.00    +0.000 A 
ATOM      6  C18 UNL     1      63.589  52.176  75.663  0.00  0.00    +0.000 A 
ENDROOT
BRANCH   4   7
ATOM      7  C6  UNL     1      63.825  55.179  73.376  0.00  0.00    +0.000 C 
ATOM      8  C7  UNL     1      62.859  55.709  72.594  0.00  0.00    +0.000 C 
ATOM      9  C8  UNL     1      61.727  54.879  72.020  0.00  0.00    +0.000 C 
ATOM     10  C9  UNL     1      61.323  55.374  70.623  0.00  0.00    +0.000 C 
ATOM     11  C10 UNL     1      61.044  56.857  70.616  0.00  0.00    +0.000 A 
ATOM     12  C11 UNL     1      60.077  57.387  69.746  0.00  0.00    +0.000 A 
ATOM     13  C12 UNL     1      59.871  58.767  69.677  0.00  0.00    +0.000 A 
ATOM     14  C13 UNL     1      60.642  59.630  70.456  0.00  0.00    +0.000 A 
ATOM     15  C14 UNL     1      61.620  59.117  71.314  0.00  0.00    +0.000 A 
ATOM     16  C15 UNL     1      61.830  57.728  71.398  0.00  0.00    +0.000 A 
ATOM     17  C16 UNL     1      62.850  57.168  72.314  0.00  0.00    +0.000 C 
ATOM     18  O2  UNL     1      63.695  57.932  72.862  0.00  0.00    +0.000 OA
ENDBRANCH   4   7
BRANCH   1  20
ATOM     19  C1  UNL     1      64.742  48.915  75.391  0.00  0.00    +0.000 C 
ATOM     20  O1  UNL     1      63.627  49.788  75.217  0.00  0.00    +0.000 OA
ENDBRANCH   1  20
BRANCH   6  21
ATOM     21  C19 UNL     1      63.408  51.927  77.145  0.00  0.00    +0.000 C 
BRANCH  21  22
ATOM     22  N1  UNL     1      62.409  52.870  77.701  0.00  0.00    +0.000 NA
ATOM     23  C20 UNL     1      61.011  52.438  77.470  0.00  0.00    +0.000 C 
ATOM     24  C21 UNL     1      60.466  51.446  78.547  0.00  0.00    +0.000 C 
ATOM     25  C22 UNL     1      61.438  51.249  79.712  0.00  0.00    +0.000 C 
ATOM     26  C23 UNL     1      61.847  52.634  80.184  0.00  0.00    +0.000 C 
ATOM     27  C24 UNL     1      62.690  53.338  79.085  0.00  0.00    +0.000 C 
ATOM     28  C25 UNL     1      60.613  53.456  80.537  0.00  0.00    +0.000 A 
ATOM     29  C26 UNL     1      60.777  54.563  81.385  0.00  0.00    +0.000 A 
ATOM     30  C27 UNL     1      59.690  55.379  81.675  0.00  0.00    +0.000 A 
ATOM     31  C28 UNL     1      58.444  55.091  81.128  0.00  0.00    +0.000 A 
ATOM     32  C29 UNL     1      58.294  53.982  80.291  0.00  0.00    +0.000 A 
ATOM     33  O3  UNL     1      57.149  53.725  79.825  0.00  0.00    +0.000 OA
ATOM     34  N2  UNL     1      59.372  53.181  79.988  0.00  0.00    +0.000 N 
ATOM     35  C30 UNL     1      59.152  51.982  79.143  0.00  0.00    +0.000 C 
ENDBRANCH  21  22
ENDBRANCH   6  21
TORSDOF 4
ENDMDL
MODEL 5
REMARK VINA RESULT:    -7.954      4.279     10.240
REMARK INTER + INTRA:         -10.832
REMARK INTER:                  -9.893
REMARK INTRA:                  -0.939
REMARK UNBOUND:                -1.018
REMARK  Name = CNP0172172_2.pdb
REMARK  5 active torsions:
REMARK  status: ('A' for Active; 'I' for Inactive)
REMARK    1  A    between atoms: C1_1  and  O1_2
REMARK    2  A    between atoms: O1_2  and  C2_3
REMARK    3  A    between atoms: C5_6  and  C6_7
REMARK    4  A    between atoms: C18_20  and  C19_21
REMARK    5  A    between atoms: C19_21  and  N1_22
REMARK                            x       y       z     vdW  Elec       q    Type
REMARK                         _______ _______ _______ _____ _____    ______ ____
ROOT
ATOM      1  C2  UNL     1      63.817  51.436  74.832  0.00  0.00    +0.000 A 
ATOM      2  C3  UNL     1      64.035  51.629  73.453  0.00  0.00    +0.000 A 
ATOM      3  C4  UNL     1      64.064  52.916  72.913  0.00  0.00    +0.000 A 
ATOM      4  C5  UNL     1      63.902  54.036  73.739  0.00  0.00    +0.000 A 
ATOM      5  C17 UNL     1      63.682  53.853  75.109  0.00  0.00    +0.000 A 
ATOM      6  C18 UNL     1      63.635  52.562  75.666  0.00  0.00    +0.000 A 
ENDROOT
BRANCH   4   7
ATOM      7  C6  UNL     1      63.834  55.400  73.173  0.00  0.00    +0.000 C 
ATOM      8  C7  UNL     1      62.799  55.885  72.452  0.00  0.00    +0.000 C 
ATOM      9  C8  UNL     1      61.607  55.033  72.060  0.00  0.00    +0.000 C 
ATOM     10  C9  UNL     1      61.069  55.427  70.677  0.00  0.00    +0.000 C 
ATOM     11  C10 UNL     1      60.805  56.910  70.583  0.00  0.00    +0.000 A 
ATOM     12  C11 UNL     1      59.760  57.389  69.775  0.00  0.00    +0.000 A 
ATOM     13  C12 UNL     1      59.561  58.763  69.620  0.00  0.00    +0.000 A 
ATOM     14  C13 UNL     1      60.415  59.669  70.250  0.00  0.00    +0.000 A 
ATOM     15  C14 UNL     1      61.469  59.206  71.043  0.00  0.00    +0.000 A 
ATOM     16  C15 UNL     1      61.674  57.825  71.213  0.00  0.00    +0.000 A 
ATOM     17  C16 UNL     1      62.776  57.319  72.063  0.00  0.00    +0.000 C 
ATOM     18  O2  UNL     1      63.679  58.107  72.463  0.00  0.00    +0.000 OA
ENDBRANCH   4   7
BRANCH   1  20
ATOM     19  C1  UNL     1      62.643  49.272  75.309  0.00  0.00    +0.000 C 
ATOM     20  O1  UNL     1      63.764  50.151  75.395  0.00  0.00    +0.000 OA
ENDBRANCH   1  20
BRANCH   6  21
ATOM     21  C19 UNL     1      63.420  52.414  77.156  0.00  0.00    +0.000 C 
BRANCH  21  22
ATOM     22  N1  UNL     1      61.978  52.241  77.449  0.00  0.00    +0.000 NA
ATOM     23  C20 UNL     1      61.712  51.195  78.463  0.00  0.00    +0.000 C 
ATOM     24  C21 UNL     1      61.806  51.701  79.938  0.00  0.00    +0.000 C 
ATOM     25  C22 UNL     1      61.996  53.216  80.030  0.00  0.00    +0.000 C 
ATOM     26  C23 UNL     1      60.936  53.848  79.143  0.00  0.00    +0.000 C 
ATOM     27  C24 UNL     1      61.223  53.507  77.654  0.00  0.00    +0.000 C 
ATOM     28  C25 UNL     1      59.550  53.370  79.557  0.00  0.00    +0.000 A 
ATOM     29  C26 UNL     1      58.443  54.144  79.175  0.00  0.00    +0.000 A 
ATOM     30  C27 UNL     1      57.158  53.707  79.472  0.00  0.00    +0.000 A 
ATOM     31  C28 UNL     1      56.975  52.506  80.150  0.00  0.00    +0.000 A 
ATOM     32  C29 UNL     1      58.086  51.749  80.529  0.00  0.00    +0.000 A 
ATOM     33  O3  UNL     1      57.898  50.675  81.165  0.00  0.00    +0.000 OA
ATOM     34  N2  UNL     1      59.360  52.171  80.223  0.00  0.00    +0.000 N 
ATOM     35  C30 UNL     1      60.510  51.363  80.697  0.00  0.00    +0.000 C 
ENDBRANCH  21  22
ENDBRANCH   6  21
TORSDOF 4
ENDMDL
MODEL 6
REMARK VINA RESULT:    -7.902      5.276     12.125
REMARK INTER + INTRA:         -10.769
REMARK INTER:                  -9.858
REMARK INTRA:                  -0.911
REMARK UNBOUND:                -1.018
REMARK  Name = CNP0172172_2.pdb
REMARK  5 active torsions:
REMARK  status: ('A' for Active; 'I' for Inactive)
REMARK    1  A    between atoms: C1_1  and  O1_2
REMARK    2  A    between atoms: O1_2  and  C2_3
REMARK    3  A    between atoms: C5_6  and  C6_7
REMARK    4  A    between atoms: C18_20  and  C19_21
REMARK    5  A    between atoms: C19_21  and  N1_22
REMARK                            x       y       z     vdW  Elec       q    Type
REMARK                         _______ _______ _______ _____ _____    ______ ____
ROOT
ATOM      1  C2  UNL     1      56.886  50.997  67.697  0.00  0.00    +0.000 A 
ATOM      2  C3  UNL     1      56.008  49.907  67.856  0.00  0.00    +0.000 A 
ATOM      3  C4  UNL     1      54.639  50.062  67.633  0.00  0.00    +0.000 A 
ATOM      4  C5  UNL     1      54.122  51.297  67.224  0.00  0.00    +0.000 A 
ATOM      5  C17 UNL     1      54.987  52.386  67.066  0.00  0.00    +0.000 A 
ATOM      6  C18 UNL     1      56.367  52.250  67.302  0.00  0.00    +0.000 A 
ENDROOT
BRANCH   4   7
ATOM      7  C6  UNL     1      52.665  51.506  67.076  0.00  0.00    +0.000 C 
ATOM      8  C7  UNL     1      51.935  51.118  66.008  0.00  0.00    +0.000 C 
ATOM      9  C8  UNL     1      52.560  50.493  64.775  0.00  0.00    +0.000 C 
ATOM     10  C9  UNL     1      51.817  50.912  63.498  0.00  0.00    +0.000 C 
ATOM     11  C10 UNL     1      50.333  50.665  63.610  0.00  0.00    +0.000 A 
ATOM     12  C11 UNL     1      49.588  50.324  62.468  0.00  0.00    +0.000 A 
ATOM     13  C12 UNL     1      48.202  50.174  62.550  0.00  0.00    +0.000 A 
ATOM     14  C13 UNL     1      47.545  50.384  63.763  0.00  0.00    +0.000 A 
ATOM     15  C14 UNL     1      48.272  50.739  64.903  0.00  0.00    +0.000 A 
ATOM     16  C15 UNL     1      49.669  50.886  64.835  0.00  0.00    +0.000 A 
ATOM     17  C16 UNL     1      50.455  51.246  66.037  0.00  0.00    +0.000 C 
ATOM     18  O2  UNL     1      49.866  51.645  67.081  0.00  0.00    +0.000 OA
ENDBRANCH   4   7
BRANCH   1  20
ATOM     19  C1  UNL     1      58.842  50.482  69.181  0.00  0.00    +0.000 C 
ATOM     20  O1  UNL     1      58.265  50.871  67.935  0.00  0.00    +0.000 OA
ENDBRANCH   1  20
BRANCH   6  21
ATOM     21  C19 UNL     1      57.268  53.448  67.094  0.00  0.00    +0.000 C 
BRANCH  21  22
ATOM     22  N1  UNL     1      57.816  53.905  68.392  0.00  0.00    +0.000 NA
ATOM     23  C20 UNL     1      59.251  54.267  68.322  0.00  0.00    +0.000 C 
ATOM     24  C21 UNL     1      59.513  55.735  67.854  0.00  0.00    +0.000 C 
ATOM     25  C22 UNL     1      58.226  56.550  67.720  0.00  0.00    +0.000 C 
ATOM     26  C23 UNL     1      57.446  56.357  69.010  0.00  0.00    +0.000 C 
ATOM     27  C24 UNL     1      56.967  54.884  69.123  0.00  0.00    +0.000 C 
ATOM     28  C25 UNL     1      58.304  56.747  70.207  0.00  0.00    +0.000 A 
ATOM     29  C26 UNL     1      57.655  57.059  71.412  0.00  0.00    +0.000 A 
ATOM     30  C27 UNL     1      58.404  57.351  72.546  0.00  0.00    +0.000 A 
ATOM     31  C28 UNL     1      59.793  57.338  72.479  0.00  0.00    +0.000 A 
ATOM     32  C29 UNL     1      60.426  57.031  71.272  0.00  0.00    +0.000 A 
ATOM     33  O3  UNL     1      61.688  57.048  71.228  0.00  0.00    +0.000 OA
ATOM     34  N2  UNL     1      59.688  56.726  70.151  0.00  0.00    +0.000 N 
ATOM     35  C30 UNL     1      60.402  56.464  68.877  0.00  0.00    +0.000 C 
ENDBRANCH  21  22
ENDBRANCH   6  21
TORSDOF 4
ENDMDL
MODEL 7
REMARK VINA RESULT:    -7.389      4.515      6.496
REMARK INTER + INTRA:         -10.135
REMARK INTER:                  -9.592
REMARK INTRA:                  -0.543
REMARK UNBOUND:                -1.018
REMARK  Name = CNP0172172_2.pdb
REMARK  5 active torsions:
REMARK  status: ('A' for Active; 'I' for Inactive)
REMARK    1  A    between atoms: C1_1  and  O1_2
REMARK    2  A    between atoms: O1_2  and  C2_3
REMARK    3  A    between atoms: C5_6  and  C6_7
REMARK    4  A    between atoms: C18_20  and  C19_21
REMARK    5  A    between atoms: C19_21  and  N1_22
REMARK                            x       y       z     vdW  Elec       q    Type
REMARK                         _______ _______ _______ _____ _____    ______ ____
ROOT
ATOM      1  C2  UNL     1      57.891  52.547  73.481  0.00  0.00    +0.000 A 
ATOM      2  C3  UNL     1      56.825  52.113  74.294  0.00  0.00    +0.000 A 
ATOM      3  C4  UNL     1      56.689  52.588  75.599  0.00  0.00    +0.000 A 
ATOM      4  C5  UNL     1      57.597  53.523  76.112  0.00  0.00    +0.000 A 
ATOM      5  C17 UNL     1      58.661  53.957  75.313  0.00  0.00    +0.000 A 
ATOM      6  C18 UNL     1      58.820  53.475  74.000  0.00  0.00    +0.000 A 
ENDROOT
BRANCH   4   7
ATOM      7  C6  UNL     1      57.527  53.964  77.521  0.00  0.00    +0.000 C 
ATOM      8  C7  UNL     1      58.584  54.050  78.356  0.00  0.00    +0.000 C 
ATOM      9  C8  UNL     1      59.978  53.606  77.956  0.00  0.00    +0.000 C 
ATOM     10  C9  UNL     1      60.736  53.002  79.147  0.00  0.00    +0.000 C 
ATOM     11  C10 UNL     1      60.719  53.920  80.344  0.00  0.00    +0.000 A 
ATOM     12  C11 UNL     1      61.809  53.942  81.231  0.00  0.00    +0.000 A 
ATOM     13  C12 UNL     1      61.764  54.729  82.384  0.00  0.00    +0.000 A 
ATOM     14  C13 UNL     1      60.626  55.483  82.674  0.00  0.00    +0.000 A 
ATOM     15  C14 UNL     1      59.528  55.458  81.808  0.00  0.00    +0.000 A 
ATOM     16  C15 UNL     1      59.564  54.675  80.640  0.00  0.00    +0.000 A 
ATOM     17  C16 UNL     1      58.417  54.650  79.705  0.00  0.00    +0.000 C 
ATOM     18  O2  UNL     1      57.308  55.149  80.052  0.00  0.00    +0.000 OA
ENDBRANCH   4   7
BRANCH   1  20
ATOM     19  C1  UNL     1      57.073  52.148  71.144  0.00  0.00    +0.000 C 
ATOM     20  O1  UNL     1      58.059  52.067  72.172  0.00  0.00    +0.000 OA
ENDBRANCH   1  20
BRANCH   6  21
ATOM     21  C19 UNL     1      59.971  53.992  73.164  0.00  0.00    +0.000 C 
BRANCH  21  22
ATOM     22  N1  UNL     1      59.490  55.026  72.219  0.00  0.00    +0.000 NA
ATOM     23  C20 UNL     1      59.819  56.404  72.650  0.00  0.00    +0.000 C 
ATOM     24  C21 UNL     1      61.245  56.881  72.226  0.00  0.00    +0.000 C 
ATOM     25  C22 UNL     1      61.952  55.880  71.309  0.00  0.00    +0.000 C 
ATOM     26  C23 UNL     1      60.973  55.533  70.199  0.00  0.00    +0.000 C 
ATOM     27  C24 UNL     1      59.769  54.744  70.785  0.00  0.00    +0.000 C 
ATOM     28  C25 UNL     1      60.507  56.799  69.493  0.00  0.00    +0.000 A 
ATOM     29  C26 UNL     1      59.971  56.676  68.201  0.00  0.00    +0.000 A 
ATOM     30  C27 UNL     1      59.470  57.797  67.550  0.00  0.00    +0.000 A 
ATOM     31  C28 UNL     1      59.507  59.037  68.180  0.00  0.00    +0.000 A 
ATOM     32  C29 UNL     1      60.049  59.146  69.463  0.00  0.00    +0.000 A 
ATOM     33  O3  UNL     1      60.095  60.284  70.006  0.00  0.00    +0.000 OA
ATOM     34  N2  UNL     1      60.532  58.035  70.118  0.00  0.00    +0.000 N 
ATOM     35  C30 UNL     1      61.151  58.209  71.454  0.00  0.00    +0.000 C 
ENDBRANCH  21  22
ENDBRANCH   6  21
TORSDOF 4
ENDMDL
MODEL 8
REMARK VINA RESULT:    -7.320      4.039      6.197
REMARK INTER + INTRA:         -10.050
REMARK INTER:                  -9.078
REMARK INTRA:                  -0.972
REMARK UNBOUND:                -1.018
REMARK  Name = CNP0172172_2.pdb
REMARK  5 active torsions:
REMARK  status: ('A' for Active; 'I' for Inactive)
REMARK    1  A    between atoms: C1_1  and  O1_2
REMARK    2  A    between atoms: O1_2  and  C2_3
REMARK    3  A    between atoms: C5_6  and  C6_7
REMARK    4  A    between atoms: C18_20  and  C19_21
REMARK    5  A    between atoms: C19_21  and  N1_22
REMARK                            x       y       z     vdW  Elec       q    Type
REMARK                         _______ _______ _______ _____ _____    ______ ____
ROOT
ATOM      1  C2  UNL     1      61.577  51.940  74.114  0.00  0.00    +0.000 A 
ATOM      2  C3  UNL     1      61.035  50.984  74.996  0.00  0.00    +0.000 A 
ATOM      3  C4  UNL     1      60.319  51.386  76.124  0.00  0.00    +0.000 A 
ATOM      4  C5  UNL     1      60.107  52.746  76.382  0.00  0.00    +0.000 A 
ATOM      5  C17 UNL     1      60.644  53.702  75.513  0.00  0.00    +0.000 A 
ATOM      6  C18 UNL     1      61.381  53.313  74.380  0.00  0.00    +0.000 A 
ENDROOT
BRANCH   4   7
ATOM      7  C6  UNL     1      59.434  53.194  77.621  0.00  0.00    +0.000 C 
ATOM      8  C7  UNL     1      60.071  53.626  78.731  0.00  0.00    +0.000 C 
ATOM      9  C8  UNL     1      61.582  53.612  78.862  0.00  0.00    +0.000 C 
ATOM     10  C9  UNL     1      62.016  53.308  80.304  0.00  0.00    +0.000 C 
ATOM     11  C10 UNL     1      61.334  54.219  81.296  0.00  0.00    +0.000 A 
ATOM     12  C11 UNL     1      61.999  54.601  82.473  0.00  0.00    +0.000 A 
ATOM     13  C12 UNL     1      61.345  55.377  83.432  0.00  0.00    +0.000 A 
ATOM     14  C13 UNL     1      60.017  55.759  83.237  0.00  0.00    +0.000 A 
ATOM     15  C14 UNL     1      59.338  55.371  82.078  0.00  0.00    +0.000 A 
ATOM     16  C15 UNL     1      59.989  54.596  81.101  0.00  0.00    +0.000 A 
ATOM     17  C16 UNL     1      59.289  54.192  79.861  0.00  0.00    +0.000 C 
ATOM     18  O2  UNL     1      58.039  54.342  79.763  0.00  0.00    +0.000 OA
ENDBRANCH   4   7
BRANCH   1  20
ATOM     19  C1  UNL     1      63.697  51.192  73.001  0.00  0.00    +0.000 C 
ATOM     20  O1  UNL     1      62.318  51.559  72.983  0.00  0.00    +0.000 OA
ENDBRANCH   1  20
BRANCH   6  21
ATOM     21  C19 UNL     1      61.921  54.381  73.454  0.00  0.00    +0.000 C 
BRANCH  21  22
ATOM     22  N1  UNL     1      60.920  54.706  72.412  0.00  0.00    +0.000 NA
ATOM     23  C20 UNL     1      60.237  55.999  72.644  0.00  0.00    +0.000 C 
ATOM     24  C21 UNL     1      61.011  57.236  72.086  0.00  0.00    +0.000 C 
ATOM     25  C22 UNL     1      62.242  56.841  71.269  0.00  0.00    +0.000 C 
ATOM     26  C23 UNL     1      61.787  55.793  70.267  0.00  0.00    +0.000 C 
ATOM     27  C24 UNL     1      61.379  54.493  71.012  0.00  0.00    +0.000 C 
ATOM     28  C25 UNL     1      60.633  56.330  69.430  0.00  0.00    +0.000 A 
ATOM     29  C26 UNL     1      60.370  55.716  68.195  0.00  0.00    +0.000 A 
ATOM     30  C27 UNL     1      59.283  56.129  67.434  0.00  0.00    +0.000 A 
ATOM     31  C28 UNL     1      58.464  57.154  67.897  0.00  0.00    +0.000 A 
ATOM     32  C29 UNL     1      58.742  57.761  69.125  0.00  0.00    +0.000 A 
ATOM     33  O3  UNL     1      58.000  58.706  69.515  0.00  0.00    +0.000 OA
ATOM     34  N2  UNL     1      59.808  57.343  69.889  0.00  0.00    +0.000 N 
ATOM     35  C30 UNL     1      60.098  58.056  71.157  0.00  0.00    +0.000 C 
ENDBRANCH  21  22
ENDBRANCH   6  21
TORSDOF 4
ENDMDL
MODEL 9
REMARK VINA RESULT:    -7.275      4.301      5.845
REMARK INTER + INTRA:          -9.995
REMARK INTER:                  -8.984
REMARK INTRA:                  -1.010
REMARK UNBOUND:                -1.018
REMARK  Name = CNP0172172_2.pdb
REMARK  5 active torsions:
REMARK  status: ('A' for Active; 'I' for Inactive)
REMARK    1  A    between atoms: C1_1  and  O1_2
REMARK    2  A    between atoms: O1_2  and  C2_3
REMARK    3  A    between atoms: C5_6  and  C6_7
REMARK    4  A    between atoms: C18_20  and  C19_21
REMARK    5  A    between atoms: C19_21  and  N1_22
REMARK                            x       y       z     vdW  Elec       q    Type
REMARK                         _______ _______ _______ _____ _____    ______ ____
ROOT
ATOM      1  C2  UNL     1      56.941  51.947  73.430  0.00  0.00    +0.000 A 
ATOM      2  C3  UNL     1      57.620  50.950  74.159  0.00  0.00    +0.000 A 
ATOM      3  C4  UNL     1      58.581  51.298  75.110  0.00  0.00    +0.000 A 
ATOM      4  C5  UNL     1      58.867  52.644  75.371  0.00  0.00    +0.000 A 
ATOM      5  C17 UNL     1      58.199  53.640  74.649  0.00  0.00    +0.000 A 
ATOM      6  C18 UNL     1      57.238  53.305  73.677  0.00  0.00    +0.000 A 
ENDROOT
BRANCH   4   7
ATOM      7  C6  UNL     1      59.948  53.029  76.303  0.00  0.00    +0.000 C 
ATOM      8  C7  UNL     1      59.767  53.356  77.601  0.00  0.00    +0.000 C 
ATOM      9  C8  UNL     1      58.392  53.453  78.234  0.00  0.00    +0.000 C 
ATOM     10  C9  UNL     1      58.340  54.566  79.291  0.00  0.00    +0.000 C 
ATOM     11  C10 UNL     1      59.457  54.433  80.297  0.00  0.00    +0.000 A 
ATOM     12  C11 UNL     1      59.259  54.840  81.627  0.00  0.00    +0.000 A 
ATOM     13  C12 UNL     1      60.313  54.795  82.542  0.00  0.00    +0.000 A 
ATOM     14  C13 UNL     1      61.577  54.367  82.135  0.00  0.00    +0.000 A 
ATOM     15  C14 UNL     1      61.792  53.975  80.810  0.00  0.00    +0.000 A 
ATOM     16  C15 UNL     1      60.736  54.008  79.881  0.00  0.00    +0.000 A 
ATOM     17  C16 UNL     1      60.944  53.580  78.479  0.00  0.00    +0.000 C 
ATOM     18  O2  UNL     1      62.115  53.396  78.042  0.00  0.00    +0.000 OA
ENDBRANCH   4   7
BRANCH   1  20
ATOM     19  C1  UNL     1      56.278  50.997  71.206  0.00  0.00    +0.000 C 
ATOM     20  O1  UNL     1      55.984  51.621  72.455  0.00  0.00    +0.000 OA
ENDBRANCH   1  20
BRANCH   6  21
ATOM     21  C19 UNL     1      56.523  54.417  72.940  0.00  0.00    +0.000 C 
BRANCH  21  22
ATOM     22  N1  UNL     1      57.091  54.575  71.582  0.00  0.00    +0.000 NA
ATOM     23  C20 UNL     1      56.811  55.902  70.985  0.00  0.00    +0.000 C 
ATOM     24  C21 UNL     1      57.835  57.010  71.390  0.00  0.00    +0.000 C 
ATOM     25  C22 UNL     1      59.014  56.458  72.192  0.00  0.00    +0.000 C 
ATOM     26  C23 UNL     1      59.549  55.261  71.423  0.00  0.00    +0.000 C 
ATOM     27  C24 UNL     1      58.499  54.116  71.432  0.00  0.00    +0.000 C 
ATOM     28  C25 UNL     1      59.904  55.667  69.998  0.00  0.00    +0.000 A 
ATOM     29  C26 UNL     1      60.798  54.854  69.283  0.00  0.00    +0.000 A 
ATOM     30  C27 UNL     1      61.093  55.150  67.957  0.00  0.00    +0.000 A 
ATOM     31  C28 UNL     1      60.506  56.255  67.348  0.00  0.00    +0.000 A 
ATOM     32  C29 UNL     1      59.623  57.059  68.074  0.00  0.00    +0.000 A 
ATOM     33  O3  UNL     1      59.121  58.070  67.510  0.00  0.00    +0.000 OA
ATOM     34  N2  UNL     1      59.316  56.759  69.382  0.00  0.00    +0.000 N 
ATOM     35  C30 UNL     1      58.420  57.674  70.130  0.00  0.00    +0.000 C 
ENDBRANCH  21  22
ENDBRANCH   6  21
TORSDOF 4
ENDMDL
MODEL 10
REMARK VINA RESULT:    -7.099      3.242      4.865
REMARK INTER + INTRA:          -9.778
REMARK INTER:                  -8.725
REMARK INTRA:                  -1.053
REMARK UNBOUND:                -1.018
REMARK  Name = CNP0172172_2.pdb
REMARK  5 active torsions:
REMARK  status: ('A' for Active; 'I' for Inactive)
REMARK    1  A    between atoms: C1_1  and  O1_2
REMARK    2  A    between atoms: O1_2  and  C2_3
REMARK    3  A    between atoms: C5_6  and  C6_7
REMARK    4  A    between atoms: C18_20  and  C19_21
REMARK    5  A    between atoms: C19_21  and  N1_22
REMARK                            x       y       z     vdW  Elec       q    Type
REMARK                         _______ _______ _______ _____ _____    ______ ____
ROOT
ATOM      1  C2  UNL     1      61.821  57.136  72.253  0.00  0.00    +0.000 A 
ATOM      2  C3  UNL     1      63.089  57.195  72.865  0.00  0.00    +0.000 A 
ATOM      3  C4  UNL     1      63.833  56.032  73.070  0.00  0.00    +0.000 A 
ATOM      4  C5  UNL     1      63.340  54.791  72.647  0.00  0.00    +0.000 A 
ATOM      5  C17 UNL     1      62.080  54.723  72.041  0.00  0.00    +0.000 A 
ATOM      6  C18 UNL     1      61.312  55.884  71.842  0.00  0.00    +0.000 A 
ENDROOT
BRANCH   4   7
ATOM      7  C6  UNL     1      64.068  53.538  72.941  0.00  0.00    +0.000 C 
ATOM      8  C7  UNL     1      64.002  52.864  74.109  0.00  0.00    +0.000 C 
ATOM      9  C8  UNL     1      63.226  53.379  75.306  0.00  0.00    +0.000 C 
ATOM     10  C9  UNL     1      63.921  53.008  76.625  0.00  0.00    +0.000 C 
ATOM     11  C10 UNL     1      64.228  51.533  76.698  0.00  0.00    +0.000 A 
ATOM     12  C11 UNL     1      64.213  50.871  77.937  0.00  0.00    +0.000 A 
ATOM     13  C12 UNL     1      64.576  49.525  78.022  0.00  0.00    +0.000 A 
ATOM     14  C13 UNL     1      64.978  48.834  76.879  0.00  0.00    +0.000 A 
ATOM     15  C14 UNL     1      65.013  49.485  75.642  0.00  0.00    +0.000 A 
ATOM     16  C15 UNL     1      64.643  50.839  75.542  0.00  0.00    +0.000 A 
ATOM     17  C16 UNL     1      64.660  51.537  74.237  0.00  0.00    +0.000 C 
ATOM     18  O2  UNL     1      65.218  51.000  73.240  0.00  0.00    +0.000 OA
ENDBRANCH   4   7
BRANCH   1  20
ATOM     19  C1  UNL     1      61.375  59.344  71.150  0.00  0.00    +0.000 C 
ATOM     20  O1  UNL     1      61.047  58.290  72.055  0.00  0.00    +0.000 OA
ENDBRANCH   1  20
BRANCH   6  21
ATOM     21  C19 UNL     1      59.966  55.765  71.160  0.00  0.00    +0.000 C 
BRANCH  21  22
ATOM     22  N1  UNL     1      58.879  55.836  72.162  0.00  0.00    +0.000 NA
ATOM     23  C20 UNL     1      57.586  55.323  71.654  0.00  0.00    +0.000 C 
ATOM     24  C21 UNL     1      57.418  53.775  71.789  0.00  0.00    +0.000 C 
ATOM     25  C22 UNL     1      58.562  53.125  72.569  0.00  0.00    +0.000 C 
ATOM     26  C23 UNL     1      58.730  53.923  73.852  0.00  0.00    +0.000 C 
ATOM     27  C24 UNL     1      59.245  55.351  73.521  0.00  0.00    +0.000 C 
ATOM     28  C25 UNL     1      57.413  53.978  74.614  0.00  0.00    +0.000 A 
ATOM     29  C26 UNL     1      57.455  54.271  75.987  0.00  0.00    +0.000 A 
ATOM     30  C27 UNL     1      56.271  54.400  76.703  0.00  0.00    +0.000 A 
ATOM     31  C28 UNL     1      55.050  54.233  76.058  0.00  0.00    +0.000 A 
ATOM     32  C29 UNL     1      55.023  53.935  74.693  0.00  0.00    +0.000 A 
ATOM     33  O3  UNL     1      53.905  53.763  74.132  0.00  0.00    +0.000 OA
ATOM     34  N2  UNL     1      56.193  53.823  73.976  0.00  0.00    +0.000 N 
ATOM     35  C30 UNL     1      56.117  53.448  72.543  0.00  0.00    +0.000 C 
ENDBRANCH  21  22
ENDBRANCH   6  21
TORSDOF 4
ENDMDL
