MODEL 1
REMARK VINA RESULT:    -8.483      0.000      0.000
REMARK INTER + INTRA:         -12.283
REMARK INTER:                 -10.963
REMARK INTRA:                  -1.321
REMARK UNBOUND:                -1.321
REMARK  Name = CNP0123550_1.pdb
REMARK  6 active torsions:
REMARK  status: ('A' for Active; 'I' for Inactive)
REMARK    1  A    between atoms: C1_1  and  C2_2
REMARK    2  A    between atoms: C3_3  and  C4_4
REMARK    3  A    between atoms: C4_4  and  C5_5
REMARK    4  A    between atoms: C14_16  and  O3_17
REMARK    5  A    between atoms: O3_17  and  C15_18
REMARK    6  A    between atoms: C15_18  and  C16_19
REMARK                            x       y       z     vdW  Elec       q    Type
REMARK                         _______ _______ _______ _____ _____    ______ ____
ROOT
ATOM      1  C1  UNL     1      56.566  51.267  65.065  0.00  0.00    +0.000 C 
ATOM      2  C2  UNL     1      56.428  52.094  66.329  0.00  0.00    +0.000 A 
ATOM      3  C3  UNL     1      55.742  51.604  67.476  0.00  0.00    +0.000 A 
ATOM      4  C11 UNL     1      55.659  52.441  68.610  0.00  0.00    +0.000 A 
ATOM      5  O1  UNL     1      55.059  52.057  69.651  0.00  0.00    +0.000 OA
ATOM      6  O2  UNL     1      56.202  53.650  68.606  0.00  0.00    +0.000 OA
ATOM      7  C12 UNL     1      56.838  54.154  67.560  0.00  0.00    +0.000 A 
ATOM      8  C13 UNL     1      57.367  55.445  67.647  0.00  0.00    +0.000 A 
ATOM      9  C14 UNL     1      58.033  56.019  66.562  0.00  0.00    +0.000 A 
ATOM     10  C28 UNL     1      58.165  55.284  65.371  0.00  0.00    +0.000 A 
ATOM     11  C29 UNL     1      57.643  53.991  65.277  0.00  0.00    +0.000 A 
ATOM     12  C30 UNL     1      56.975  53.403  66.372  0.00  0.00    +0.000 A 
ENDROOT
BRANCH   3  13
ATOM     13  C4  UNL     1      55.063  50.243  67.502  0.00  0.00    +0.000 C 
BRANCH  13  14
ATOM     14  C5  UNL     1      53.636  50.324  67.014  0.00  0.00    +0.000 A 
ATOM     15  C6  UNL     1      53.028  51.573  66.798  0.00  0.00    +0.000 A 
ATOM     16  C7  UNL     1      51.702  51.648  66.363  0.00  0.00    +0.000 A 
ATOM     17  C8  UNL     1      50.968  50.479  66.149  0.00  0.00    +0.000 A 
ATOM     18  C9  UNL     1      51.558  49.233  66.378  0.00  0.00    +0.000 A 
ATOM     19  C10 UNL     1      52.883  49.154  66.817  0.00  0.00    +0.000 A 
ENDBRANCH  13  14
ENDBRANCH   3  13
BRANCH   9  20
ATOM     20  O3  UNL     1      58.544  57.319  66.710  0.00  0.00    +0.000 OA
BRANCH  20  21
ATOM     21  C15 UNL     1      59.736  57.663  67.416  0.00  0.00    +0.000 C 
BRANCH  21  22
ATOM     22  C16 UNL     1      59.429  58.046  68.839  0.00  0.00    +0.000 C 
ATOM     23  O4  UNL     1      58.404  58.748  69.059  0.00  0.00    +0.000 OA
ATOM     24  N1  UNL     1      60.263  57.627  69.943  0.00  0.00    +0.000 N 
ATOM     25  C17 UNL     1      61.257  56.550  69.793  0.00  0.00    +0.000 C 
ATOM     26  C18 UNL     1      61.372  55.708  71.085  0.00  0.00    +0.000 C 
ATOM     27  C19 UNL     1      61.580  56.609  72.300  0.00  0.00    +0.000 C 
ATOM     28  C20 UNL     1      60.381  57.549  72.407  0.00  0.00    +0.000 C 
ATOM     29  C21 UNL     1      60.324  58.449  71.162  0.00  0.00    +0.000 C 
ATOM     30  C22 UNL     1      59.098  56.751  72.508  0.00  0.00    +0.000 A 
ATOM     31  C23 UNL     1      57.987  57.352  73.122  0.00  0.00    +0.000 A 
ATOM     32  C24 UNL     1      56.766  56.690  73.143  0.00  0.00    +0.000 A 
ATOM     33  C25 UNL     1      56.650  55.439  72.550  0.00  0.00    +0.000 A 
ATOM     34  C26 UNL     1      57.764  54.856  71.940  0.00  0.00    +0.000 A 
ATOM     35  O5  UNL     1      57.640  53.711  71.425  0.00  0.00    +0.000 OA
ATOM     36  N2  UNL     1      58.972  55.515  71.905  0.00  0.00    +0.000 N 
ATOM     37  C27 UNL     1      60.135  54.813  71.311  0.00  0.00    +0.000 C 
ENDBRANCH  21  22
ENDBRANCH  20  21
ENDBRANCH   9  20
TORSDOF 5
ENDMDL
MODEL 2
REMARK VINA RESULT:    -8.475      3.574     10.178
REMARK INTER + INTRA:         -12.273
REMARK INTER:                 -11.500
REMARK INTRA:                  -0.773
REMARK UNBOUND:                -1.321
REMARK  Name = CNP0123550_1.pdb
REMARK  6 active torsions:
REMARK  status: ('A' for Active; 'I' for Inactive)
REMARK    1  A    between atoms: C1_1  and  C2_2
REMARK    2  A    between atoms: C3_3  and  C4_4
REMARK    3  A    between atoms: C4_4  and  C5_5
REMARK    4  A    between atoms: C14_16  and  O3_17
REMARK    5  A    between atoms: O3_17  and  C15_18
REMARK    6  A    between atoms: C15_18  and  C16_19
REMARK                            x       y       z     vdW  Elec       q    Type
REMARK                         _______ _______ _______ _____ _____    ______ ____
ROOT
ATOM      1  C1  UNL     1      58.899  57.222  66.849  0.00  0.00    +0.000 C 
ATOM      2  C2  UNL     1      58.172  56.524  67.982  0.00  0.00    +0.000 A 
ATOM      3  C3  UNL     1      58.060  57.108  69.275  0.00  0.00    +0.000 A 
ATOM      4  C11 UNL     1      57.368  56.387  70.274  0.00  0.00    +0.000 A 
ATOM      5  O1  UNL     1      57.242  56.858  71.436  0.00  0.00    +0.000 OA
ATOM      6  O2  UNL     1      56.840  55.200  70.014  0.00  0.00    +0.000 OA
ATOM      7  C12 UNL     1      56.930  54.610  68.832  0.00  0.00    +0.000 A 
ATOM      8  C13 UNL     1      56.352  53.350  68.659  0.00  0.00    +0.000 A 
ATOM      9  C14 UNL     1      56.436  52.687  67.432  0.00  0.00    +0.000 A 
ATOM     10  C28 UNL     1      57.115  53.302  66.366  0.00  0.00    +0.000 A 
ATOM     11  C29 UNL     1      57.692  54.564  66.529  0.00  0.00    +0.000 A 
ATOM     12  C30 UNL     1      57.605  55.241  67.765  0.00  0.00    +0.000 A 
ENDROOT
BRANCH   3  13
ATOM     13  C4  UNL     1      58.694  58.446  69.625  0.00  0.00    +0.000 C 
BRANCH  13  14
ATOM     14  C5  UNL     1      60.045  58.267  70.274  0.00  0.00    +0.000 A 
ATOM     15  C6  UNL     1      60.750  59.378  70.769  0.00  0.00    +0.000 A 
ATOM     16  C7  UNL     1      62.009  59.214  71.354  0.00  0.00    +0.000 A 
ATOM     17  C8  UNL     1      62.580  57.942  71.442  0.00  0.00    +0.000 A 
ATOM     18  C9  UNL     1      61.894  56.833  70.938  0.00  0.00    +0.000 A 
ATOM     19  C10 UNL     1      60.637  56.994  70.348  0.00  0.00    +0.000 A 
ENDBRANCH  13  14
ENDBRANCH   3  13
BRANCH   9  20
ATOM     20  O3  UNL     1      55.835  51.423  67.319  0.00  0.00    +0.000 OA
BRANCH  20  21
ATOM     21  C15 UNL     1      55.168  50.926  66.158  0.00  0.00    +0.000 C 
BRANCH  21  22
ATOM     22  C16 UNL     1      53.677  50.898  66.362  0.00  0.00    +0.000 C 
ATOM     23  O4  UNL     1      53.179  51.677  67.221  0.00  0.00    +0.000 OA
ATOM     24  N1  UNL     1      52.815  50.021  65.604  0.00  0.00    +0.000 N 
ATOM     25  C17 UNL     1      53.283  49.349  64.379  0.00  0.00    +0.000 C 
ATOM     26  C18 UNL     1      52.150  49.230  63.335  0.00  0.00    +0.000 C 
ATOM     27  C19 UNL     1      50.898  48.620  63.962  0.00  0.00    +0.000 C 
ATOM     28  C20 UNL     1      50.449  49.527  65.106  0.00  0.00    +0.000 C 
ATOM     29  C21 UNL     1      51.541  49.569  66.187  0.00  0.00    +0.000 C 
ATOM     30  C22 UNL     1      50.196  50.929  64.593  0.00  0.00    +0.000 A 
ATOM     31  C23 UNL     1      49.310  51.750  65.308  0.00  0.00    +0.000 A 
ATOM     32  C24 UNL     1      49.131  53.074  64.926  0.00  0.00    +0.000 A 
ATOM     33  C25 UNL     1      49.837  53.578  63.840  0.00  0.00    +0.000 A 
ATOM     34  C26 UNL     1      50.718  52.749  63.141  0.00  0.00    +0.000 A 
ATOM     35  O5  UNL     1      51.333  53.224  62.146  0.00  0.00    +0.000 OA
ATOM     36  N2  UNL     1      50.907  51.442  63.526  0.00  0.00    +0.000 N 
ATOM     37  C27 UNL     1      51.796  50.591  62.698  0.00  0.00    +0.000 C 
ENDBRANCH  21  22
ENDBRANCH  20  21
ENDBRANCH   9  20
TORSDOF 5
ENDMDL
MODEL 3
REMARK VINA RESULT:    -8.319      3.472      8.835
REMARK INTER + INTRA:         -12.071
REMARK INTER:                 -10.766
REMARK INTRA:                  -1.305
REMARK UNBOUND:                -1.321
REMARK  Name = CNP0123550_1.pdb
REMARK  6 active torsions:
REMARK  status: ('A' for Active; 'I' for Inactive)
REMARK    1  A    between atoms: C1_1  and  C2_2
REMARK    2  A    between atoms: C3_3  and  C4_4
REMARK    3  A    between atoms: C4_4  and  C5_5
REMARK    4  A    between atoms: C14_16  and  O3_17
REMARK    5  A    between atoms: O3_17  and  C15_18
REMARK    6  A    between atoms: C15_18  and  C16_19
REMARK                            x       y       z     vdW  Elec       q    Type
REMARK                         _______ _______ _______ _____ _____    ______ ____
ROOT
ATOM      1  C1  UNL     1      64.506  56.004  74.053  0.00  0.00    +0.000 C 
ATOM      2  C2  UNL     1      63.274  55.451  73.363  0.00  0.00    +0.000 A 
ATOM      3  C3  UNL     1      62.840  54.110  73.563  0.00  0.00    +0.000 A 
ATOM      4  C11 UNL     1      61.683  53.675  72.880  0.00  0.00    +0.000 A 
ATOM      5  O1  UNL     1      61.258  52.497  73.020  0.00  0.00    +0.000 OA
ATOM      6  O2  UNL     1      61.022  54.492  72.073  0.00  0.00    +0.000 OA
ATOM      7  C12 UNL     1      61.394  55.742  71.844  0.00  0.00    +0.000 A 
ATOM      8  C13 UNL     1      60.638  56.523  70.965  0.00  0.00    +0.000 A 
ATOM      9  C14 UNL     1      61.004  57.842  70.685  0.00  0.00    +0.000 A 
ATOM     10  C28 UNL     1      62.149  58.379  71.298  0.00  0.00    +0.000 A 
ATOM     11  C29 UNL     1      62.908  57.607  72.182  0.00  0.00    +0.000 A 
ATOM     12  C30 UNL     1      62.539  56.276  72.473  0.00  0.00    +0.000 A 
ENDROOT
BRANCH   3  13
ATOM     13  C4  UNL     1      63.599  53.128  74.443  0.00  0.00    +0.000 C 
BRANCH  13  14
ATOM     14  C5  UNL     1      63.120  53.179  75.874  0.00  0.00    +0.000 A 
ATOM     15  C6  UNL     1      64.019  52.967  76.934  0.00  0.00    +0.000 A 
ATOM     16  C7  UNL     1      63.572  52.996  78.258  0.00  0.00    +0.000 A 
ATOM     17  C8  UNL     1      62.222  53.229  78.536  0.00  0.00    +0.000 A 
ATOM     18  C9  UNL     1      61.317  53.424  77.488  0.00  0.00    +0.000 A 
ATOM     19  C10 UNL     1      61.761  53.390  76.162  0.00  0.00    +0.000 A 
ENDBRANCH  13  14
ENDBRANCH   3  13
BRANCH   9  20
ATOM     20  O3  UNL     1      60.205  58.576  69.794  0.00  0.00    +0.000 OA
BRANCH  20  21
ATOM     21  C15 UNL     1      58.876  58.234  69.402  0.00  0.00    +0.000 C 
BRANCH  21  22
ATOM     22  C16 UNL     1      58.885  57.331  68.197  0.00  0.00    +0.000 C 
ATOM     23  O4  UNL     1      59.725  57.564  67.285  0.00  0.00    +0.000 OA
ATOM     24  N1  UNL     1      57.974  56.217  68.066  0.00  0.00    +0.000 N 
ATOM     25  C17 UNL     1      57.218  55.700  69.219  0.00  0.00    +0.000 C 
ATOM     26  C18 UNL     1      57.049  54.165  69.139  0.00  0.00    +0.000 C 
ATOM     27  C19 UNL     1      56.500  53.753  67.775  0.00  0.00    +0.000 C 
ATOM     28  C20 UNL     1      57.487  54.217  66.705  0.00  0.00    +0.000 C 
ATOM     29  C21 UNL     1      57.581  55.751  66.726  0.00  0.00    +0.000 C 
ATOM     30  C22 UNL     1      58.856  53.626  66.965  0.00  0.00    +0.000 A 
ATOM     31  C23 UNL     1      59.736  53.483  65.879  0.00  0.00    +0.000 A 
ATOM     32  C24 UNL     1      61.035  53.040  66.095  0.00  0.00    +0.000 A 
ATOM     33  C25 UNL     1      61.457  52.747  67.386  0.00  0.00    +0.000 A 
ATOM     34  C26 UNL     1      60.570  52.899  68.456  0.00  0.00    +0.000 A 
ATOM     35  O5  UNL     1      60.970  52.608  69.617  0.00  0.00    +0.000 OA
ATOM     36  N2  UNL     1      59.288  53.350  68.247  0.00  0.00    +0.000 N 
ATOM     37  C27 UNL     1      58.371  53.417  69.411  0.00  0.00    +0.000 C 
ENDBRANCH  21  22
ENDBRANCH  20  21
ENDBRANCH   9  20
TORSDOF 5
ENDMDL
MODEL 4
REMARK VINA RESULT:    -8.190      4.821      9.404
REMARK INTER + INTRA:         -11.904
REMARK INTER:                 -10.321
REMARK INTRA:                  -1.584
REMARK UNBOUND:                -1.321
REMARK  Name = CNP0123550_1.pdb
REMARK  6 active torsions:
REMARK  status: ('A' for Active; 'I' for Inactive)
REMARK    1  A    between atoms: C1_1  and  C2_2
REMARK    2  A    between atoms: C3_3  and  C4_4
REMARK    3  A    between atoms: C4_4  and  C5_5
REMARK    4  A    between atoms: C14_16  and  O3_17
REMARK    5  A    between atoms: O3_17  and  C15_18
REMARK    6  A    between atoms: C15_18  and  C16_19
REMARK                            x       y       z     vdW  Elec       q    Type
REMARK                         _______ _______ _______ _____ _____    ______ ____
ROOT
ATOM      1  C1  UNL     1      59.987  53.473  78.334  0.00  0.00    +0.000 C 
ATOM      2  C2  UNL     1      60.539  53.455  76.922  0.00  0.00    +0.000 A 
ATOM      3  C3  UNL     1      61.926  53.272  76.660  0.00  0.00    +0.000 A 
ATOM      4  C11 UNL     1      62.356  53.271  75.314  0.00  0.00    +0.000 A 
ATOM      5  O1  UNL     1      63.573  53.116  75.028  0.00  0.00    +0.000 OA
ATOM      6  O2  UNL     1      61.491  53.439  74.324  0.00  0.00    +0.000 OA
ATOM      7  C12 UNL     1      60.195  53.627  74.518  0.00  0.00    +0.000 A 
ATOM      8  C13 UNL     1      59.364  53.809  73.409  0.00  0.00    +0.000 A 
ATOM      9  C14 UNL     1      57.993  54.024  73.570  0.00  0.00    +0.000 A 
ATOM     10  C28 UNL     1      57.453  54.059  74.867  0.00  0.00    +0.000 A 
ATOM     11  C29 UNL     1      58.276  53.874  75.981  0.00  0.00    +0.000 A 
ATOM     12  C30 UNL     1      59.661  53.650  75.824  0.00  0.00    +0.000 A 
ENDROOT
BRANCH   3  13
ATOM     13  C4  UNL     1      62.955  53.125  77.771  0.00  0.00    +0.000 C 
BRANCH  13  14
ATOM     14  C5  UNL     1      63.339  51.681  77.985  0.00  0.00    +0.000 A 
ATOM     15  C6  UNL     1      64.563  51.189  77.499  0.00  0.00    +0.000 A 
ATOM     16  C7  UNL     1      64.910  49.848  77.682  0.00  0.00    +0.000 A 
ATOM     17  C8  UNL     1      64.035  48.982  78.344  0.00  0.00    +0.000 A 
ATOM     18  C9  UNL     1      62.808  49.457  78.816  0.00  0.00    +0.000 A 
ATOM     19  C10 UNL     1      62.456  50.797  78.630  0.00  0.00    +0.000 A 
ENDBRANCH  13  14
ENDBRANCH   3  13
BRANCH   9  20
ATOM     20  O3  UNL     1      57.210  54.199  72.418  0.00  0.00    +0.000 OA
BRANCH  20  21
ATOM     21  C15 UNL     1      56.538  55.403  72.051  0.00  0.00    +0.000 C 
BRANCH  21  22
ATOM     22  C16 UNL     1      57.519  56.523  71.829  0.00  0.00    +0.000 C 
ATOM     23  O4  UNL     1      57.798  57.273  72.805  0.00  0.00    +0.000 OA
ATOM     24  N1  UNL     1      58.147  56.750  70.547  0.00  0.00    +0.000 N 
ATOM     25  C17 UNL     1      58.124  55.729  69.485  0.00  0.00    +0.000 C 
ATOM     26  C18 UNL     1      59.435  55.739  68.667  0.00  0.00    +0.000 C 
ATOM     27  C19 UNL     1      59.764  57.153  68.191  0.00  0.00    +0.000 C 
ATOM     28  C20 UNL     1      59.920  58.045  69.421  0.00  0.00    +0.000 C 
ATOM     29  C21 UNL     1      58.586  58.107  70.182  0.00  0.00    +0.000 C 
ATOM     30  C22 UNL     1      60.994  57.493  70.335  0.00  0.00    +0.000 A 
ATOM     31  C23 UNL     1      61.650  58.380  71.203  0.00  0.00    +0.000 A 
ATOM     32  C24 UNL     1      62.568  57.894  72.126  0.00  0.00    +0.000 A 
ATOM     33  C25 UNL     1      62.826  56.530  72.187  0.00  0.00    +0.000 A 
ATOM     34  C26 UNL     1      62.162  55.660  71.319  0.00  0.00    +0.000 A 
ATOM     35  O5  UNL     1      62.427  54.427  71.380  0.00  0.00    +0.000 OA
ATOM     36  N2  UNL     1      61.242  56.137  70.413  0.00  0.00    +0.000 N 
ATOM     37  C27 UNL     1      60.628  55.174  69.468  0.00  0.00    +0.000 C 
ENDBRANCH  21  22
ENDBRANCH  20  21
ENDBRANCH   9  20
TORSDOF 5
ENDMDL
MODEL 5
REMARK VINA RESULT:    -8.156      3.433      8.408
REMARK INTER + INTRA:         -11.860
REMARK INTER:                 -10.046
REMARK INTRA:                  -1.814
REMARK UNBOUND:                -1.321
REMARK  Name = CNP0123550_1.pdb
REMARK  6 active torsions:
REMARK  status: ('A' for Active; 'I' for Inactive)
REMARK    1  A    between atoms: C1_1  and  C2_2
REMARK    2  A    between atoms: C3_3  and  C4_4
REMARK    3  A    between atoms: C4_4  and  C5_5
REMARK    4  A    between atoms: C14_16  and  O3_17
REMARK    5  A    between atoms: O3_17  and  C15_18
REMARK    6  A    between atoms: C15_18  and  C16_19
REMARK                            x       y       z     vdW  Elec       q    Type
REMARK                         _______ _______ _______ _____ _____    ______ ____
ROOT
ATOM      1  C1  UNL     1      64.636  56.185  73.554  0.00  0.00    +0.000 C 
ATOM      2  C2  UNL     1      63.160  55.877  73.391  0.00  0.00    +0.000 A 
ATOM      3  C3  UNL     1      62.546  54.776  74.052  0.00  0.00    +0.000 A 
ATOM      4  C11 UNL     1      61.166  54.559  73.843  0.00  0.00    +0.000 A 
ATOM      5  O1  UNL     1      60.574  53.597  74.402  0.00  0.00    +0.000 OA
ATOM      6  O2  UNL     1      60.464  55.357  73.051  0.00  0.00    +0.000 OA
ATOM      7  C12 UNL     1      60.993  56.384  72.405  0.00  0.00    +0.000 A 
ATOM      8  C13 UNL     1      60.173  57.160  71.581  0.00  0.00    +0.000 A 
ATOM      9  C14 UNL     1      60.694  58.244  70.870  0.00  0.00    +0.000 A 
ATOM     10  C28 UNL     1      62.062  58.547  70.989  0.00  0.00    +0.000 A 
ATOM     11  C29 UNL     1      62.888  57.779  71.814  0.00  0.00    +0.000 A 
ATOM     12  C30 UNL     1      62.365  56.687  72.539  0.00  0.00    +0.000 A 
ENDROOT
BRANCH   3  13
ATOM     13  C4  UNL     1      63.328  53.809  74.929  0.00  0.00    +0.000 C 
BRANCH  13  14
ATOM     14  C5  UNL     1      63.764  52.587  74.158  0.00  0.00    +0.000 A 
ATOM     15  C6  UNL     1      64.086  51.396  74.832  0.00  0.00    +0.000 A 
ATOM     16  C7  UNL     1      64.505  50.271  74.118  0.00  0.00    +0.000 A 
ATOM     17  C8  UNL     1      64.616  50.325  72.727  0.00  0.00    +0.000 A 
ATOM     18  C9  UNL     1      64.315  51.509  72.048  0.00  0.00    +0.000 A 
ATOM     19  C10 UNL     1      63.899  52.639  72.759  0.00  0.00    +0.000 A 
ENDBRANCH  13  14
ENDBRANCH   3  13
BRANCH   9  20
ATOM     20  O3  UNL     1      59.821  58.987  70.060  0.00  0.00    +0.000 OA
BRANCH  20  21
ATOM     21  C15 UNL     1      58.552  58.538  69.585  0.00  0.00    +0.000 C 
BRANCH  21  22
ATOM     22  C16 UNL     1      58.715  57.501  68.506  0.00  0.00    +0.000 C 
ATOM     23  O4  UNL     1      59.559  57.718  67.594  0.00  0.00    +0.000 OA
ATOM     24  N1  UNL     1      57.946  56.278  68.494  0.00  0.00    +0.000 N 
ATOM     25  C17 UNL     1      57.207  55.820  69.684  0.00  0.00    +0.000 C 
ATOM     26  C18 UNL     1      57.222  54.278  69.796  0.00  0.00    +0.000 C 
ATOM     27  C19 UNL     1      56.781  53.637  68.481  0.00  0.00    +0.000 C 
ATOM     28  C20 UNL     1      57.750  54.081  67.387  0.00  0.00    +0.000 C 
ATOM     29  C21 UNL     1      57.665  55.606  67.215  0.00  0.00    +0.000 C 
ATOM     30  C22 UNL     1      59.167  53.696  67.756  0.00  0.00    +0.000 A 
ATOM     31  C23 UNL     1      60.101  53.526  66.721  0.00  0.00    +0.000 A 
ATOM     32  C24 UNL     1      61.433  53.273  67.026  0.00  0.00    +0.000 A 
ATOM     33  C25 UNL     1      61.832  53.195  68.354  0.00  0.00    +0.000 A 
ATOM     34  C26 UNL     1      60.891  53.370  69.372  0.00  0.00    +0.000 A 
ATOM     35  O5  UNL     1      61.274  53.275  70.571  0.00  0.00    +0.000 OA
ATOM     36  N2  UNL     1      59.574  53.635  69.074  0.00  0.00    +0.000 N 
ATOM     37  C27 UNL     1      58.609  53.734  70.195  0.00  0.00    +0.000 C 
ENDBRANCH  21  22
ENDBRANCH  20  21
ENDBRANCH   9  20
TORSDOF 5
ENDMDL
MODEL 6
REMARK VINA RESULT:    -8.117      5.749     10.116
REMARK INTER + INTRA:         -11.810
REMARK INTER:                 -10.607
REMARK INTRA:                  -1.203
REMARK UNBOUND:                -1.321
REMARK  Name = CNP0123550_1.pdb
REMARK  6 active torsions:
REMARK  status: ('A' for Active; 'I' for Inactive)
REMARK    1  A    between atoms: C1_1  and  C2_2
REMARK    2  A    between atoms: C3_3  and  C4_4
REMARK    3  A    between atoms: C4_4  and  C5_5
REMARK    4  A    between atoms: C14_16  and  O3_17
REMARK    5  A    between atoms: O3_17  and  C15_18
REMARK    6  A    between atoms: C15_18  and  C16_19
REMARK                            x       y       z     vdW  Elec       q    Type
REMARK                         _______ _______ _______ _____ _____    ______ ____
ROOT
ATOM      1  C1  UNL     1      58.485  54.164  79.501  0.00  0.00    +0.000 C 
ATOM      2  C2  UNL     1      59.492  53.879  78.403  0.00  0.00    +0.000 A 
ATOM      3  C3  UNL     1      60.859  53.604  78.690  0.00  0.00    +0.000 A 
ATOM      4  C11 UNL     1      61.729  53.352  77.607  0.00  0.00    +0.000 A 
ATOM      5  O1  UNL     1      62.949  53.106  77.806  0.00  0.00    +0.000 OA
ATOM      6  O2  UNL     1      61.285  53.373  76.358  0.00  0.00    +0.000 OA
ATOM      7  C12 UNL     1      60.028  53.637  76.041  0.00  0.00    +0.000 A 
ATOM      8  C13 UNL     1      59.658  53.649  74.693  0.00  0.00    +0.000 A 
ATOM      9  C14 UNL     1      58.345  53.937  74.314  0.00  0.00    +0.000 A 
ATOM     10  C28 UNL     1      57.392  54.219  75.308  0.00  0.00    +0.000 A 
ATOM     11  C29 UNL     1      57.751  54.204  76.658  0.00  0.00    +0.000 A 
ATOM     12  C30 UNL     1      59.075  53.908  77.047  0.00  0.00    +0.000 A 
ENDROOT
BRANCH   3  13
ATOM     13  C4  UNL     1      61.415  53.619  80.106  0.00  0.00    +0.000 C 
BRANCH  13  14
ATOM     14  C5  UNL     1      61.020  52.379  80.871  0.00  0.00    +0.000 A 
ATOM     15  C6  UNL     1      60.288  52.483  82.067  0.00  0.00    +0.000 A 
ATOM     16  C7  UNL     1      59.937  51.336  82.784  0.00  0.00    +0.000 A 
ATOM     17  C8  UNL     1      60.322  50.075  82.320  0.00  0.00    +0.000 A 
ATOM     18  C9  UNL     1      61.066  49.962  81.141  0.00  0.00    +0.000 A 
ATOM     19  C10 UNL     1      61.422  51.108  80.424  0.00  0.00    +0.000 A 
ENDBRANCH  13  14
ENDBRANCH   3  13
BRANCH   9  20
ATOM     20  O3  UNL     1      58.034  53.934  72.945  0.00  0.00    +0.000 OA
BRANCH  20  21
ATOM     21  C15 UNL     1      57.002  54.705  72.330  0.00  0.00    +0.000 C 
BRANCH  21  22
ATOM     22  C16 UNL     1      57.532  56.028  71.845  0.00  0.00    +0.000 C 
ATOM     23  O4  UNL     1      57.485  57.013  72.631  0.00  0.00    +0.000 OA
ATOM     24  N1  UNL     1      58.095  56.190  70.524  0.00  0.00    +0.000 N 
ATOM     25  C17 UNL     1      58.481  55.030  69.702  0.00  0.00    +0.000 C 
ATOM     26  C18 UNL     1      59.739  55.334  68.856  0.00  0.00    +0.000 C 
ATOM     27  C19 UNL     1      59.568  56.640  68.083  0.00  0.00    +0.000 C 
ATOM     28  C20 UNL     1      59.344  57.765  69.092  0.00  0.00    +0.000 C 
ATOM     29  C21 UNL     1      58.042  57.506  69.866  0.00  0.00    +0.000 C 
ATOM     30  C22 UNL     1      60.502  57.833  70.064  0.00  0.00    +0.000 A 
ATOM     31  C23 UNL     1      60.763  59.055  70.704  0.00  0.00    +0.000 A 
ATOM     32  C24 UNL     1      61.752  59.131  71.677  0.00  0.00    +0.000 A 
ATOM     33  C25 UNL     1      62.472  57.992  72.015  0.00  0.00    +0.000 A 
ATOM     34  C26 UNL     1      62.198  56.782  71.372  0.00  0.00    +0.000 A 
ATOM     35  O5  UNL     1      62.879  55.765  71.682  0.00  0.00    +0.000 OA
ATOM     36  N2  UNL     1      61.210  56.701  70.418  0.00  0.00    +0.000 N 
ATOM     37  C27 UNL     1      61.018  55.408  69.717  0.00  0.00    +0.000 C 
ENDBRANCH  21  22
ENDBRANCH  20  21
ENDBRANCH   9  20
TORSDOF 5
ENDMDL
MODEL 7
REMARK VINA RESULT:    -8.016      4.409      8.970
REMARK INTER + INTRA:         -11.679
REMARK INTER:                 -10.073
REMARK INTRA:                  -1.607
REMARK UNBOUND:                -1.321
REMARK  Name = CNP0123550_1.pdb
REMARK  6 active torsions:
REMARK  status: ('A' for Active; 'I' for Inactive)
REMARK    1  A    between atoms: C1_1  and  C2_2
REMARK    2  A    between atoms: C3_3  and  C4_4
REMARK    3  A    between atoms: C4_4  and  C5_5
REMARK    4  A    between atoms: C14_16  and  O3_17
REMARK    5  A    between atoms: O3_17  and  C15_18
REMARK    6  A    between atoms: C15_18  and  C16_19
REMARK                            x       y       z     vdW  Elec       q    Type
REMARK                         _______ _______ _______ _____ _____    ______ ____
ROOT
ATOM      1  C1  UNL     1      58.272  54.095  79.178  0.00  0.00    +0.000 C 
ATOM      2  C2  UNL     1      57.851  54.195  77.725  0.00  0.00    +0.000 A 
ATOM      3  C3  UNL     1      56.523  54.544  77.349  0.00  0.00    +0.000 A 
ATOM      4  C11 UNL     1      56.216  54.612  75.972  0.00  0.00    +0.000 A 
ATOM      5  O1  UNL     1      55.055  54.913  75.586  0.00  0.00    +0.000 OA
ATOM      6  O2  UNL     1      57.139  54.355  75.056  0.00  0.00    +0.000 OA
ATOM      7  C12 UNL     1      58.382  54.013  75.356  0.00  0.00    +0.000 A 
ATOM      8  C13 UNL     1      59.280  53.749  74.318  0.00  0.00    +0.000 A 
ATOM      9  C14 UNL     1      60.597  53.372  74.591  0.00  0.00    +0.000 A 
ATOM     10  C28 UNL     1      61.014  53.257  75.928  0.00  0.00    +0.000 A 
ATOM     11  C29 UNL     1      60.124  53.524  76.972  0.00  0.00    +0.000 A 
ATOM     12  C30 UNL     1      58.794  53.911  76.702  0.00  0.00    +0.000 A 
ENDROOT
BRANCH   3  13
ATOM     13  C4  UNL     1      55.425  54.797  78.372  0.00  0.00    +0.000 C 
BRANCH  13  14
ATOM     14  C5  UNL     1      55.428  56.230  78.846  0.00  0.00    +0.000 A 
ATOM     15  C6  UNL     1      55.856  56.549  80.147  0.00  0.00    +0.000 A 
ATOM     16  C7  UNL     1      55.842  57.874  80.591  0.00  0.00    +0.000 A 
ATOM     17  C8  UNL     1      55.393  58.892  79.745  0.00  0.00    +0.000 A 
ATOM     18  C9  UNL     1      54.949  58.583  78.456  0.00  0.00    +0.000 A 
ATOM     19  C10 UNL     1      54.958  57.258  78.010  0.00  0.00    +0.000 A 
ENDBRANCH  13  14
ENDBRANCH   3  13
BRANCH   9  20
ATOM     20  O3  UNL     1      61.453  53.120  73.506  0.00  0.00    +0.000 OA
BRANCH  20  21
ATOM     21  C15 UNL     1      62.491  53.989  73.054  0.00  0.00    +0.000 C 
BRANCH  21  22
ATOM     22  C16 UNL     1      62.082  54.711  71.798  0.00  0.00    +0.000 C 
ATOM     23  O4  UNL     1      62.000  54.046  70.729  0.00  0.00    +0.000 OA
ATOM     24  N1  UNL     1      61.778  56.124  71.790  0.00  0.00    +0.000 N 
ATOM     25  C17 UNL     1      61.531  56.867  73.038  0.00  0.00    +0.000 C 
ATOM     26  C18 UNL     1      60.457  57.961  72.838  0.00  0.00    +0.000 C 
ATOM     27  C19 UNL     1      60.791  58.831  71.628  0.00  0.00    +0.000 C 
ATOM     28  C20 UNL     1      60.843  57.932  70.395  0.00  0.00    +0.000 C 
ATOM     29  C21 UNL     1      61.974  56.904  70.557  0.00  0.00    +0.000 C 
ATOM     30  C22 UNL     1      59.526  57.206  70.221  0.00  0.00    +0.000 A 
ATOM     31  C23 UNL     1      59.171  56.769  68.935  0.00  0.00    +0.000 A 
ATOM     32  C24 UNL     1      58.020  56.011  68.753  0.00  0.00    +0.000 A 
ATOM     33  C25 UNL     1      57.230  55.687  69.850  0.00  0.00    +0.000 A 
ATOM     34  C26 UNL     1      57.599  56.127  71.124  0.00  0.00    +0.000 A 
ATOM     35  O5  UNL     1      56.855  55.836  72.101  0.00  0.00    +0.000 OA
ATOM     36  N2  UNL     1      58.746  56.865  71.308  0.00  0.00    +0.000 N 
ATOM     37  C27 UNL     1      59.042  57.367  72.671  0.00  0.00    +0.000 C 
ENDBRANCH  21  22
ENDBRANCH  20  21
ENDBRANCH   9  20
TORSDOF 5
ENDMDL
MODEL 8
REMARK VINA RESULT:    -7.919      5.723     10.436
REMARK INTER + INTRA:         -11.555
REMARK INTER:                 -10.319
REMARK INTRA:                  -1.236
REMARK UNBOUND:                -1.321
REMARK  Name = CNP0123550_1.pdb
REMARK  6 active torsions:
REMARK  status: ('A' for Active; 'I' for Inactive)
REMARK    1  A    between atoms: C1_1  and  C2_2
REMARK    2  A    between atoms: C3_3  and  C4_4
REMARK    3  A    between atoms: C4_4  and  C5_5
REMARK    4  A    between atoms: C14_16  and  O3_17
REMARK    5  A    between atoms: O3_17  and  C15_18
REMARK    6  A    between atoms: C15_18  and  C16_19
REMARK                            x       y       z     vdW  Elec       q    Type
REMARK                         _______ _______ _______ _____ _____    ______ ____
ROOT
ATOM      1  C1  UNL     1      58.093  54.577  80.139  0.00  0.00    +0.000 C 
ATOM      2  C2  UNL     1      58.958  54.185  78.957  0.00  0.00    +0.000 A 
ATOM      3  C3  UNL     1      60.336  53.865  79.108  0.00  0.00    +0.000 A 
ATOM      4  C11 UNL     1      61.069  53.512  77.953  0.00  0.00    +0.000 A 
ATOM      5  O1  UNL     1      62.294  53.223  78.032  0.00  0.00    +0.000 OA
ATOM      6  O2  UNL     1      60.489  53.484  76.762  0.00  0.00    +0.000 OA
ATOM      7  C12 UNL     1      59.215  53.787  76.569  0.00  0.00    +0.000 A 
ATOM      8  C13 UNL     1      58.697  53.740  75.272  0.00  0.00    +0.000 A 
ATOM      9  C14 UNL     1      57.362  54.066  75.022  0.00  0.00    +0.000 A 
ATOM     10  C28 UNL     1      56.538  54.446  76.096  0.00  0.00    +0.000 A 
ATOM     11  C29 UNL     1      57.046  54.491  77.397  0.00  0.00    +0.000 A 
ATOM     12  C30 UNL     1      58.393  54.157  77.655  0.00  0.00    +0.000 A 
ENDROOT
BRANCH   3  13
ATOM     13  C4  UNL     1      61.049  53.934  80.451  0.00  0.00    +0.000 C 
BRANCH  13  14
ATOM     14  C5  UNL     1      60.773  52.709  81.290  0.00  0.00    +0.000 A 
ATOM     15  C6  UNL     1      61.140  51.433  80.829  0.00  0.00    +0.000 A 
ATOM     16  C7  UNL     1      60.868  50.298  81.598  0.00  0.00    +0.000 A 
ATOM     17  C8  UNL     1      60.220  50.425  82.829  0.00  0.00    +0.000 A 
ATOM     18  C9  UNL     1      59.835  51.688  83.288  0.00  0.00    +0.000 A 
ATOM     19  C10 UNL     1      60.101  52.825  82.519  0.00  0.00    +0.000 A 
ENDBRANCH  13  14
ENDBRANCH   3  13
BRANCH   9  20
ATOM     20  O3  UNL     1      56.900  54.000  73.699  0.00  0.00    +0.000 OA
BRANCH  20  21
ATOM     21  C15 UNL     1      56.937  55.072  72.756  0.00  0.00    +0.000 C 
BRANCH  21  22
ATOM     22  C16 UNL     1      57.986  54.829  71.704  0.00  0.00    +0.000 C 
ATOM     23  O4  UNL     1      57.657  54.181  70.673  0.00  0.00    +0.000 OA
ATOM     24  N1  UNL     1      59.338  55.322  71.840  0.00  0.00    +0.000 N 
ATOM     25  C17 UNL     1      59.687  56.351  72.835  0.00  0.00    +0.000 C 
ATOM     26  C18 UNL     1      60.780  57.303  72.299  0.00  0.00    +0.000 C 
ATOM     27  C19 UNL     1      61.966  56.511  71.752  0.00  0.00    +0.000 C 
ATOM     28  C20 UNL     1      61.461  55.620  70.619  0.00  0.00    +0.000 C 
ATOM     29  C21 UNL     1      60.442  54.612  71.174  0.00  0.00    +0.000 C 
ATOM     30  C22 UNL     1      60.802  56.461  69.546  0.00  0.00    +0.000 A 
ATOM     31  C23 UNL     1      60.750  55.952  68.239  0.00  0.00    +0.000 A 
ATOM     32  C24 UNL     1      60.065  56.648  67.251  0.00  0.00    +0.000 A 
ATOM     33  C25 UNL     1      59.430  57.844  67.566  0.00  0.00    +0.000 A 
ATOM     34  C26 UNL     1      59.487  58.335  68.873  0.00  0.00    +0.000 A 
ATOM     35  O5  UNL     1      58.919  59.432  69.131  0.00  0.00    +0.000 OA
ATOM     36  N2  UNL     1      60.154  57.640  69.857  0.00  0.00    +0.000 N 
ATOM     37  C27 UNL     1      60.245  58.251  71.205  0.00  0.00    +0.000 C 
ENDBRANCH  21  22
ENDBRANCH  20  21
ENDBRANCH   9  20
TORSDOF 5
ENDMDL
MODEL 9
REMARK VINA RESULT:    -7.891      3.882      8.648
REMARK INTER + INTRA:         -11.518
REMARK INTER:                  -9.743
REMARK INTRA:                  -1.775
REMARK UNBOUND:                -1.321
REMARK  Name = CNP0123550_1.pdb
REMARK  6 active torsions:
REMARK  status: ('A' for Active; 'I' for Inactive)
REMARK    1  A    between atoms: C1_1  and  C2_2
REMARK    2  A    between atoms: C3_3  and  C4_4
REMARK    3  A    between atoms: C4_4  and  C5_5
REMARK    4  A    between atoms: C14_16  and  O3_17
REMARK    5  A    between atoms: O3_17  and  C15_18
REMARK    6  A    between atoms: C15_18  and  C16_19
REMARK                            x       y       z     vdW  Elec       q    Type
REMARK                         _______ _______ _______ _____ _____    ______ ____
ROOT
ATOM      1  C1  UNL     1      58.469  53.064  74.744  0.00  0.00    +0.000 C 
ATOM      2  C2  UNL     1      59.660  53.906  74.329  0.00  0.00    +0.000 A 
ATOM      3  C3  UNL     1      60.970  53.650  74.824  0.00  0.00    +0.000 A 
ATOM      4  C11 UNL     1      62.022  54.485  74.388  0.00  0.00    +0.000 A 
ATOM      5  O1  UNL     1      63.200  54.303  74.799  0.00  0.00    +0.000 OA
ATOM      6  O2  UNL     1      61.795  55.481  73.544  0.00  0.00    +0.000 OA
ATOM      7  C12 UNL     1      60.594  55.766  73.067  0.00  0.00    +0.000 A 
ATOM      8  C13 UNL     1      60.452  56.846  72.190  0.00  0.00    +0.000 A 
ATOM      9  C14 UNL     1      59.201  57.190  71.675  0.00  0.00    +0.000 A 
ATOM     10  C28 UNL     1      58.075  56.437  72.051  0.00  0.00    +0.000 A 
ATOM     11  C29 UNL     1      58.207  55.353  72.923  0.00  0.00    +0.000 A 
ATOM     12  C30 UNL     1      59.471  54.997  73.442  0.00  0.00    +0.000 A 
ENDROOT
BRANCH   3  13
ATOM     13  C4  UNL     1      61.261  52.548  75.833  0.00  0.00    +0.000 C 
BRANCH  13  14
ATOM     14  C5  UNL     1      61.192  53.060  77.251  0.00  0.00    +0.000 A 
ATOM     15  C6  UNL     1      62.338  53.063  78.065  0.00  0.00    +0.000 A 
ATOM     16  C7  UNL     1      62.269  53.521  79.383  0.00  0.00    +0.000 A 
ATOM     17  C8  UNL     1      61.054  53.973  79.905  0.00  0.00    +0.000 A 
ATOM     18  C9  UNL     1      59.905  53.958  79.109  0.00  0.00    +0.000 A 
ATOM     19  C10 UNL     1      59.969  53.496  77.791  0.00  0.00    +0.000 A 
ENDBRANCH  13  14
ENDBRANCH   3  13
BRANCH   9  20
ATOM     20  O3  UNL     1      59.122  58.284  70.799  0.00  0.00    +0.000 OA
BRANCH  20  21
ATOM     21  C15 UNL     1      58.404  58.304  69.565  0.00  0.00    +0.000 C 
BRANCH  21  22
ATOM     22  C16 UNL     1      59.023  57.365  68.564  0.00  0.00    +0.000 C 
ATOM     23  O4  UNL     1      60.196  57.607  68.167  0.00  0.00    +0.000 OA
ATOM     24  N1  UNL     1      58.321  56.205  68.063  0.00  0.00    +0.000 N 
ATOM     25  C17 UNL     1      57.111  55.690  68.727  0.00  0.00    +0.000 C 
ATOM     26  C18 UNL     1      57.042  54.148  68.653  0.00  0.00    +0.000 C 
ATOM     27  C19 UNL     1      57.241  53.666  67.218  0.00  0.00    +0.000 C 
ATOM     28  C20 UNL     1      58.612  54.142  66.741  0.00  0.00    +0.000 C 
ATOM     29  C21 UNL     1      58.644  55.679  66.728  0.00  0.00    +0.000 C 
ATOM     30  C22 UNL     1      59.694  53.625  67.665  0.00  0.00    +0.000 A 
ATOM     31  C23 UNL     1      60.995  53.488  67.154  0.00  0.00    +0.000 A 
ATOM     32  C24 UNL     1      62.034  53.114  67.997  0.00  0.00    +0.000 A 
ATOM     33  C25 UNL     1      61.779  52.883  69.343  0.00  0.00    +0.000 A 
ATOM     34  C26 UNL     1      60.480  53.027  69.836  0.00  0.00    +0.000 A 
ATOM     35  O5  UNL     1      60.268  52.793  71.059  0.00  0.00    +0.000 OA
ATOM     36  N2  UNL     1      59.451  53.411  69.007  0.00  0.00    +0.000 N 
ATOM     37  C27 UNL     1      58.082  53.472  69.572  0.00  0.00    +0.000 C 
ENDBRANCH  21  22
ENDBRANCH  20  21
ENDBRANCH   9  20
TORSDOF 5
ENDMDL
MODEL 10
REMARK VINA RESULT:    -7.862      5.342     10.967
REMARK INTER + INTRA:         -11.481
REMARK INTER:                 -10.626
REMARK INTRA:                  -0.855
REMARK UNBOUND:                -1.321
REMARK  Name = CNP0123550_1.pdb
REMARK  6 active torsions:
REMARK  status: ('A' for Active; 'I' for Inactive)
REMARK    1  A    between atoms: C1_1  and  C2_2
REMARK    2  A    between atoms: C3_3  and  C4_4
REMARK    3  A    between atoms: C4_4  and  C5_5
REMARK    4  A    between atoms: C14_16  and  O3_17
REMARK    5  A    between atoms: O3_17  and  C15_18
REMARK    6  A    between atoms: C15_18  and  C16_19
REMARK                            x       y       z     vdW  Elec       q    Type
REMARK                         _______ _______ _______ _____ _____    ______ ____
ROOT
ATOM      1  C1  UNL     1      58.063  55.073  70.284  0.00  0.00    +0.000 C 
ATOM      2  C2  UNL     1      58.403  55.994  69.128  0.00  0.00    +0.000 A 
ATOM      3  C3  UNL     1      58.903  57.310  69.338  0.00  0.00    +0.000 A 
ATOM      4  C11 UNL     1      59.192  58.102  68.205  0.00  0.00    +0.000 A 
ATOM      5  O1  UNL     1      59.634  59.275  68.336  0.00  0.00    +0.000 OA
ATOM      6  O2  UNL     1      59.001  57.633  66.981  0.00  0.00    +0.000 OA
ATOM      7  C12 UNL     1      58.526  56.422  66.735  0.00  0.00    +0.000 A 
ATOM      8  C13 UNL     1      58.347  56.021  65.408  0.00  0.00    +0.000 A 
ATOM      9  C14 UNL     1      57.835  54.758  65.105  0.00  0.00    +0.000 A 
ATOM     10  C28 UNL     1      57.497  53.886  66.155  0.00  0.00    +0.000 A 
ATOM     11  C29 UNL     1      57.677  54.276  67.484  0.00  0.00    +0.000 A 
ATOM     12  C30 UNL     1      58.200  55.550  67.796  0.00  0.00    +0.000 A 
ENDROOT
BRANCH   3  13
ATOM     13  C4  UNL     1      59.089  57.901  70.728  0.00  0.00    +0.000 C 
BRANCH  13  14
ATOM     14  C5  UNL     1      60.535  57.855  71.162  0.00  0.00    +0.000 A 
ATOM     15  C6  UNL     1      61.158  56.624  71.432  0.00  0.00    +0.000 A 
ATOM     16  C7  UNL     1      62.491  56.583  71.851  0.00  0.00    +0.000 A 
ATOM     17  C8  UNL     1      63.211  57.769  72.012  0.00  0.00    +0.000 A 
ATOM     18  C9  UNL     1      62.595  58.999  71.763  0.00  0.00    +0.000 A 
ATOM     19  C10 UNL     1      61.261  59.044  71.348  0.00  0.00    +0.000 A 
ENDBRANCH  13  14
ENDBRANCH   3  13
BRANCH   9  20
ATOM     20  O3  UNL     1      57.678  54.413  63.753  0.00  0.00    +0.000 OA
BRANCH  20  21
ATOM     21  C15 UNL     1      57.708  55.328  62.658  0.00  0.00    +0.000 C 
BRANCH  21  22
ATOM     22  C16 UNL     1      58.084  54.627  61.379  0.00  0.00    +0.000 C 
ATOM     23  O4  UNL     1      58.637  53.496  61.460  0.00  0.00    +0.000 OA
ATOM     24  N1  UNL     1      57.822  55.206  60.082  0.00  0.00    +0.000 N 
ATOM     25  C17 UNL     1      56.895  56.339  59.916  0.00  0.00    +0.000 C 
ATOM     26  C18 UNL     1      56.116  56.239  58.584  0.00  0.00    +0.000 C 
ATOM     27  C19 UNL     1      57.072  56.015  57.415  0.00  0.00    +0.000 C 
ATOM     28  C20 UNL     1      57.833  54.714  57.663  0.00  0.00    +0.000 C 
ATOM     29  C21 UNL     1      58.679  54.852  58.939  0.00  0.00    +0.000 C 
ATOM     30  C22 UNL     1      56.862  53.564  57.826  0.00  0.00    +0.000 A 
ATOM     31  C23 UNL     1      57.314  52.266  57.541  0.00  0.00    +0.000 A 
ATOM     32  C24 UNL     1      56.485  51.176  57.775  0.00  0.00    +0.000 A 
ATOM     33  C25 UNL     1      55.213  51.379  58.298  0.00  0.00    +0.000 A 
ATOM     34  C26 UNL     1      54.779  52.677  58.580  0.00  0.00    +0.000 A 
ATOM     35  O5  UNL     1      53.613  52.838  59.036  0.00  0.00    +0.000 OA
ATOM     36  N2  UNL     1      55.604  53.757  58.362  0.00  0.00    +0.000 N 
ATOM     37  C27 UNL     1      55.059  55.114  58.609  0.00  0.00    +0.000 C 
ENDBRANCH  21  22
ENDBRANCH  20  21
ENDBRANCH   9  20
TORSDOF 5
ENDMDL
