MODEL 1
REMARK VINA RESULT:    -7.206      0.000      0.000
REMARK INTER + INTRA:          -7.627
REMARK INTER:                  -7.627
REMARK INTRA:                   0.000
REMARK UNBOUND:                 0.000
REMARK  Name = CNP0071339_1.pdb
REMARK  6 active torsions:
REMARK  status: ('A' for Active; 'I' for Inactive)
REMARK    1  A    between atoms: C1_1  and  C2_2
REMARK    2  A    between atoms: C2_2  and  C3_3
REMARK    3  A    between atoms: C9_11  and  C10_12
REMARK    4  A    between atoms: C11_13  and  C12_14
REMARK    5  A    between atoms: C20_23  and  O4_24
REMARK    6  A    between atoms: C21_25  and  O5_26
REMARK                            x       y       z     vdW  Elec       q    Type
REMARK                         _______ _______ _______ _____ _____    ______ ____
ROOT
ATOM      1  C1  UNL     1      24.478  33.549  35.880  0.00  0.00    +0.000 C 
ATOM      2  C2  UNL     1      23.123  33.507  36.607  0.00  0.00    +0.000 C 
ATOM      3  C3  UNL     1      22.917  32.089  37.188  0.00  0.00    +0.000 C 
ATOM      4  O1  UNL     1      23.143  34.440  37.668  0.00  0.00    +0.000 OA
ATOM      5  C4  UNL     1      21.801  34.819  37.887  0.00  0.00    +0.000 C 
ATOM      6  C5  UNL     1      21.682  36.280  38.275  0.00  0.00    +0.000 C 
ATOM      7  C6  UNL     1      20.515  36.422  39.248  0.00  0.00    +0.000 C 
ATOM      8  O2  UNL     1      20.638  35.947  40.369  0.00  0.00    +0.000 OA
ATOM      9  C7  UNL     1      19.222  37.141  38.932  0.00  0.00    +0.000 C 
ATOM     10  C8  UNL     1      19.180  37.834  37.559  0.00  0.00    +0.000 C 
ATOM     11  C9  UNL     1      20.575  38.300  37.057  0.00  0.00    +0.000 C 
ATOM     12  C10 UNL     1      21.157  39.298  38.125  0.00  0.00    +0.000 C 
ATOM     13  C11 UNL     1      20.474  39.033  35.641  0.00  0.00    +0.000 C 
ATOM     14  C12 UNL     1      19.643  38.248  34.568  0.00  0.00    +0.000 C 
ATOM     15  C13 UNL     1      19.947  40.440  35.591  0.00  0.00    +0.000 A 
ATOM     16  C14 UNL     1      20.640  41.174  34.662  0.00  0.00    +0.000 A 
ATOM     17  C15 UNL     1      21.791  40.436  34.064  0.00  0.00    +0.000 C 
ATOM     18  C16 UNL     1      21.920  39.340  35.136  0.00  0.00    +0.000 C 
ATOM     19  C17 UNL     1      22.736  38.077  34.894  0.00  0.00    +0.000 C 
ATOM     20  C18 UNL     1      22.862  37.331  36.245  0.00  0.00    +0.000 C 
ATOM     21  C19 UNL     1      21.480  36.994  36.915  0.00  0.00    +0.000 C 
ATOM     22  O3  UNL     1      20.839  36.046  36.075  0.00  0.00    +0.000 OA
ATOM     23  C20 UNL     1      21.051  34.738  36.577  0.00  0.00    +0.000 C 
ATOM     24  C21 UNL     1      21.979  33.939  35.664  0.00  0.00    +0.000 C 
ATOM     25  C22 UNL     1      19.769  42.118  34.179  0.00  0.00    +0.000 A 
ATOM     26  C23 UNL     1      19.873  43.008  33.115  0.00  0.00    +0.000 A 
ATOM     27  C24 UNL     1      18.735  43.767  32.784  0.00  0.00    +0.000 A 
ATOM     28  C25 UNL     1      17.524  43.587  33.491  0.00  0.00    +0.000 A 
ATOM     29  C26 UNL     1      17.437  42.642  34.531  0.00  0.00    +0.000 A 
ATOM     30  C27 UNL     1      18.586  41.925  34.862  0.00  0.00    +0.000 A 
ATOM     31  N1  UNL     1      18.671  40.876  35.711  0.00  0.00    +0.000 N 
ATOM     32  H33 UNL     1      17.878  40.401  36.193  0.00  0.00    +0.000 HD
ENDROOT
BRANCH  23  33
ATOM     33  O4  UNL     1      19.815  34.094  36.775  0.00  0.00    +0.000 OA
ATOM     34  H26 UNL     1      19.115  34.798  36.756  0.00  0.00    +0.000 HD
ENDBRANCH  23  33
BRANCH  24  35
ATOM     35  O5  UNL     1      21.321  32.844  35.073  0.00  0.00    +0.000 OA
ATOM     36  H28 UNL     1      21.273  32.137  35.767  0.00  0.00    +0.000 HD
ENDBRANCH  24  35
TORSDOF 2
ENDMDL
MODEL 2
REMARK VINA RESULT:    -7.169      3.216      7.877
REMARK INTER + INTRA:          -7.588
REMARK INTER:                  -7.588
REMARK INTRA:                   0.000
REMARK UNBOUND:                 0.000
REMARK  Name = CNP0071339_1.pdb
REMARK  6 active torsions:
REMARK  status: ('A' for Active; 'I' for Inactive)
REMARK    1  A    between atoms: C1_1  and  C2_2
REMARK    2  A    between atoms: C2_2  and  C3_3
REMARK    3  A    between atoms: C9_11  and  C10_12
REMARK    4  A    between atoms: C11_13  and  C12_14
REMARK    5  A    between atoms: C20_23  and  O4_24
REMARK    6  A    between atoms: C21_25  and  O5_26
REMARK                            x       y       z     vdW  Elec       q    Type
REMARK                         _______ _______ _______ _____ _____    ______ ____
ROOT
ATOM      1  C1  UNL     1      19.634  43.705  33.627  0.00  0.00    +0.000 C 
ATOM      2  C2  UNL     1      18.563  42.663  33.259  0.00  0.00    +0.000 C 
ATOM      3  C3  UNL     1      17.489  43.346  32.379  0.00  0.00    +0.000 C 
ATOM      4  O1  UNL     1      19.170  41.624  32.519  0.00  0.00    +0.000 OA
ATOM      5  C4  UNL     1      18.384  40.471  32.736  0.00  0.00    +0.000 C 
ATOM      6  C5  UNL     1      19.229  39.215  32.800  0.00  0.00    +0.000 C 
ATOM      7  C6  UNL     1      18.419  38.064  32.208  0.00  0.00    +0.000 C 
ATOM      8  O2  UNL     1      18.200  38.073  31.005  0.00  0.00    +0.000 OA
ATOM      9  C7  UNL     1      17.892  36.891  33.005  0.00  0.00    +0.000 C 
ATOM     10  C8  UNL     1      18.315  36.866  34.485  0.00  0.00    +0.000 C 
ATOM     11  C9  UNL     1      19.687  37.546  34.749  0.00  0.00    +0.000 C 
ATOM     12  C10 UNL     1      20.767  36.794  33.887  0.00  0.00    +0.000 C 
ATOM     13  C11 UNL     1      20.091  37.472  36.293  0.00  0.00    +0.000 C 
ATOM     14  C12 UNL     1      18.957  37.926  37.277  0.00  0.00    +0.000 C 
ATOM     15  C13 UNL     1      20.591  36.168  36.848  0.00  0.00    +0.000 A 
ATOM     16  C14 UNL     1      21.600  36.391  37.750  0.00  0.00    +0.000 A 
ATOM     17  C15 UNL     1      22.012  37.823  37.833  0.00  0.00    +0.000 C 
ATOM     18  C16 UNL     1      21.400  38.298  36.504  0.00  0.00    +0.000 C 
ATOM     19  C17 UNL     1      21.215  39.777  36.194  0.00  0.00    +0.000 C 
ATOM     20  C18 UNL     1      20.823  39.899  34.700  0.00  0.00    +0.000 C 
ATOM     21  C19 UNL     1      19.542  39.073  34.311  0.00  0.00    +0.000 C 
ATOM     22  O3  UNL     1      18.448  39.672  34.988  0.00  0.00    +0.000 OA
ATOM     23  C20 UNL     1      17.766  40.555  34.113  0.00  0.00    +0.000 C 
ATOM     24  C21 UNL     1      17.971  42.011  34.527  0.00  0.00    +0.000 C 
ATOM     25  C22 UNL     1      21.543  35.369  38.664  0.00  0.00    +0.000 A 
ATOM     26  C23 UNL     1      22.202  35.178  39.874  0.00  0.00    +0.000 A 
ATOM     27  C24 UNL     1      21.820  34.075  40.658  0.00  0.00    +0.000 A 
ATOM     28  C25 UNL     1      20.771  33.225  40.238  0.00  0.00    +0.000 A 
ATOM     29  C26 UNL     1      20.090  33.474  39.031  0.00  0.00    +0.000 A 
ATOM     30  C27 UNL     1      20.508  34.555  38.254  0.00  0.00    +0.000 A 
ATOM     31  N1  UNL     1      19.893  35.050  37.158  0.00  0.00    +0.000 N 
ATOM     32  H33 UNL     1      18.976  34.742  36.767  0.00  0.00    +0.000 HD
ENDROOT
BRANCH  23  33
ATOM     33  O4  UNL     1      16.404  40.207  34.046  0.00  0.00    +0.000 OA
ATOM     34  H26 UNL     1      16.363  39.236  33.839  0.00  0.00    +0.000 HD
ENDBRANCH  23  33
BRANCH  24  35
ATOM     35  O5  UNL     1      16.768  42.616  34.936  0.00  0.00    +0.000 OA
ATOM     36  H28 UNL     1      16.942  43.592  34.973  0.00  0.00    +0.000 HD
ENDBRANCH  24  35
TORSDOF 2
ENDMDL
MODEL 3
REMARK VINA RESULT:    -7.148      2.868      7.743
REMARK INTER + INTRA:          -7.566
REMARK INTER:                  -7.566
REMARK INTRA:                   0.000
REMARK UNBOUND:                 0.000
REMARK  Name = CNP0071339_1.pdb
REMARK  6 active torsions:
REMARK  status: ('A' for Active; 'I' for Inactive)
REMARK    1  A    between atoms: C1_1  and  C2_2
REMARK    2  A    between atoms: C2_2  and  C3_3
REMARK    3  A    between atoms: C9_11  and  C10_12
REMARK    4  A    between atoms: C11_13  and  C12_14
REMARK    5  A    between atoms: C20_23  and  O4_24
REMARK    6  A    between atoms: C21_25  and  O5_26
REMARK                            x       y       z     vdW  Elec       q    Type
REMARK                         _______ _______ _______ _____ _____    ______ ____
ROOT
ATOM      1  C1  UNL     1      18.306  38.575  31.977  0.00  0.00    +0.000 C 
ATOM      2  C2  UNL     1      19.258  39.398  32.862  0.00  0.00    +0.000 C 
ATOM      3  C3  UNL     1      19.488  40.775  32.195  0.00  0.00    +0.000 C 
ATOM      4  O1  UNL     1      18.657  39.593  34.124  0.00  0.00    +0.000 OA
ATOM      5  C4  UNL     1      19.715  39.765  35.044  0.00  0.00    +0.000 C 
ATOM      6  C5  UNL     1      19.399  39.146  36.391  0.00  0.00    +0.000 C 
ATOM      7  C6  UNL     1      20.053  40.001  37.474  0.00  0.00    +0.000 C 
ATOM      8  O2  UNL     1      19.599  41.119  37.678  0.00  0.00    +0.000 OA
ATOM      9  C7  UNL     1      21.208  39.547  38.339  0.00  0.00    +0.000 C 
ATOM     10  C8  UNL     1      21.644  38.086  38.130  0.00  0.00    +0.000 C 
ATOM     11  C9  UNL     1      20.489  37.154  37.670  0.00  0.00    +0.000 C 
ATOM     12  C10 UNL     1      19.365  37.208  38.768  0.00  0.00    +0.000 C 
ATOM     13  C11 UNL     1      20.988  35.647  37.490  0.00  0.00    +0.000 C 
ATOM     14  C12 UNL     1      22.299  35.499  36.643  0.00  0.00    +0.000 C 
ATOM     15  C13 UNL     1      21.219  34.811  38.718  0.00  0.00    +0.000 A 
ATOM     16  C14 UNL     1      20.813  33.520  38.497  0.00  0.00    +0.000 A 
ATOM     17  C15 UNL     1      20.141  33.329  37.178  0.00  0.00    +0.000 C 
ATOM     18  C16 UNL     1      19.817  34.804  36.889  0.00  0.00    +0.000 C 
ATOM     19  C17 UNL     1      19.411  35.276  35.499  0.00  0.00    +0.000 C 
ATOM     20  C18 UNL     1      18.917  36.739  35.625  0.00  0.00    +0.000 C 
ATOM     21  C19 UNL     1      19.971  37.712  36.267  0.00  0.00    +0.000 C 
ATOM     22  O3  UNL     1      21.051  37.807  35.352  0.00  0.00    +0.000 OA
ATOM     23  C20 UNL     1      20.912  38.977  34.564  0.00  0.00    +0.000 C 
ATOM     24  C21 UNL     1      20.574  38.630  33.115  0.00  0.00    +0.000 C 
ATOM     25  C22 UNL     1      21.609  32.719  39.277  0.00  0.00    +0.000 A 
ATOM     26  C23 UNL     1      21.757  31.336  39.326  0.00  0.00    +0.000 A 
ATOM     27  C24 UNL     1      22.771  30.818  40.153  0.00  0.00    +0.000 A 
ATOM     28  C25 UNL     1      23.627  31.686  40.867  0.00  0.00    +0.000 A 
ATOM     29  C26 UNL     1      23.483  33.083  40.758  0.00  0.00    +0.000 A 
ATOM     30  C27 UNL     1      22.451  33.573  39.958  0.00  0.00    +0.000 A 
ATOM     31  N1  UNL     1      22.245  34.860  39.600  0.00  0.00    +0.000 N 
ATOM     32  H33 UNL     1      22.866  35.671  39.812  0.00  0.00    +0.000 HD
ENDROOT
BRANCH  23  33
ATOM     33  O4  UNL     1      22.074  39.765  34.666  0.00  0.00    +0.000 OA
ATOM     34  H26 UNL     1      21.857  40.651  34.273  0.00  0.00    +0.000 HD
ENDBRANCH  23  33
BRANCH  24  35
ATOM     35  O5  UNL     1      21.601  39.009  32.230  0.00  0.00    +0.000 OA
ATOM     36  H28 UNL     1      22.454  38.730  32.654  0.00  0.00    +0.000 HD
ENDBRANCH  24  35
TORSDOF 2
ENDMDL
MODEL 4
REMARK VINA RESULT:    -6.808      3.798      8.166
REMARK INTER + INTRA:          -7.206
REMARK INTER:                  -7.206
REMARK INTRA:                   0.000
REMARK UNBOUND:                 0.000
REMARK  Name = CNP0071339_1.pdb
REMARK  6 active torsions:
REMARK  status: ('A' for Active; 'I' for Inactive)
REMARK    1  A    between atoms: C1_1  and  C2_2
REMARK    2  A    between atoms: C2_2  and  C3_3
REMARK    3  A    between atoms: C9_11  and  C10_12
REMARK    4  A    between atoms: C11_13  and  C12_14
REMARK    5  A    between atoms: C20_23  and  O4_24
REMARK    6  A    between atoms: C21_25  and  O5_26
REMARK                            x       y       z     vdW  Elec       q    Type
REMARK                         _______ _______ _______ _____ _____    ______ ____
ROOT
ATOM      1  C1  UNL     1      21.823  42.566  29.127  0.00  0.00    +0.000 C 
ATOM      2  C2  UNL     1      21.086  43.361  30.219  0.00  0.00    +0.000 C 
ATOM      3  C3  UNL     1      21.046  44.851  29.806  0.00  0.00    +0.000 C 
ATOM      4  O1  UNL     1      19.763  42.878  30.323  0.00  0.00    +0.000 OA
ATOM      5  C4  UNL     1      19.346  43.144  31.646  0.00  0.00    +0.000 C 
ATOM      6  C5  UNL     1      18.451  42.048  32.188  0.00  0.00    +0.000 C 
ATOM      7  C6  UNL     1      17.428  42.687  33.125  0.00  0.00    +0.000 C 
ATOM      8  O2  UNL     1      16.564  43.400  32.634  0.00  0.00    +0.000 OA
ATOM      9  C7  UNL     1      17.390  42.473  34.622  0.00  0.00    +0.000 C 
ATOM     10  C8  UNL     1      18.416  41.460  35.162  0.00  0.00    +0.000 C 
ATOM     11  C9  UNL     1      18.792  40.353  34.139  0.00  0.00    +0.000 C 
ATOM     12  C10 UNL     1      17.471  39.596  33.747  0.00  0.00    +0.000 C 
ATOM     13  C11 UNL     1      19.840  39.317  34.755  0.00  0.00    +0.000 C 
ATOM     14  C12 UNL     1      21.076  39.986  35.449  0.00  0.00    +0.000 C 
ATOM     15  C13 UNL     1      19.349  38.290  35.737  0.00  0.00    +0.000 A 
ATOM     16  C14 UNL     1      19.986  37.093  35.533  0.00  0.00    +0.000 A 
ATOM     17  C15 UNL     1      20.874  37.094  34.332  0.00  0.00    +0.000 C 
ATOM     18  C16 UNL     1      20.279  38.326  33.629  0.00  0.00    +0.000 C 
ATOM     19  C17 UNL     1      21.008  39.024  32.488  0.00  0.00    +0.000 C 
ATOM     20  C18 UNL     1      20.026  40.042  31.856  0.00  0.00    +0.000 C 
ATOM     21  C19 UNL     1      19.448  41.085  32.881  0.00  0.00    +0.000 C 
ATOM     22  O3  UNL     1      20.535  41.894  33.300  0.00  0.00    +0.000 OA
ATOM     23  C20 UNL     1      20.553  43.099  32.555  0.00  0.00    +0.000 C 
ATOM     24  C21 UNL     1      21.743  43.142  31.599  0.00  0.00    +0.000 C 
ATOM     25  C22 UNL     1      20.046  36.466  36.752  0.00  0.00    +0.000 A 
ATOM     26  C23 UNL     1      20.721  35.323  37.167  0.00  0.00    +0.000 A 
ATOM     27  C24 UNL     1      20.691  35.010  38.539  0.00  0.00    +0.000 A 
ATOM     28  C25 UNL     1      20.031  35.861  39.454  0.00  0.00    +0.000 A 
ATOM     29  C26 UNL     1      19.399  37.038  39.008  0.00  0.00    +0.000 A 
ATOM     30  C27 UNL     1      19.414  37.311  37.641  0.00  0.00    +0.000 A 
ATOM     31  N1  UNL     1      19.008  38.450  37.037  0.00  0.00    +0.000 N 
ATOM     32  H33 UNL     1      18.687  39.323  37.509  0.00  0.00    +0.000 HD
ENDROOT
BRANCH  23  33
ATOM     33  O4  UNL     1      20.532  44.203  33.429  0.00  0.00    +0.000 OA
ATOM     34  H26 UNL     1      20.407  43.844  34.346  0.00  0.00    +0.000 HD
ENDBRANCH  23  33
BRANCH  24  35
ATOM     35  O5  UNL     1      22.652  44.162  31.935  0.00  0.00    +0.000 OA
ATOM     36  H28 UNL     1      22.329  44.558  32.785  0.00  0.00    +0.000 HD
ENDBRANCH  24  35
TORSDOF 2
ENDMDL
MODEL 5
REMARK VINA RESULT:    -6.673      4.430      9.351
REMARK INTER + INTRA:          -7.063
REMARK INTER:                  -7.063
REMARK INTRA:                   0.000
REMARK UNBOUND:                 0.000
REMARK  Name = CNP0071339_1.pdb
REMARK  6 active torsions:
REMARK  status: ('A' for Active; 'I' for Inactive)
REMARK    1  A    between atoms: C1_1  and  C2_2
REMARK    2  A    between atoms: C2_2  and  C3_3
REMARK    3  A    between atoms: C9_11  and  C10_12
REMARK    4  A    between atoms: C11_13  and  C12_14
REMARK    5  A    between atoms: C20_23  and  O4_24
REMARK    6  A    between atoms: C21_25  and  O5_26
REMARK                            x       y       z     vdW  Elec       q    Type
REMARK                         _______ _______ _______ _____ _____    ______ ____
ROOT
ATOM      1  C1  UNL     1      21.621  38.637  36.348  0.00  0.00    +0.000 C 
ATOM      2  C2  UNL     1      20.610  37.680  37.002  0.00  0.00    +0.000 C 
ATOM      3  C3  UNL     1      19.180  38.177  36.684  0.00  0.00    +0.000 C 
ATOM      4  O1  UNL     1      20.781  36.390  36.454  0.00  0.00    +0.000 OA
ATOM      5  C4  UNL     1      20.339  35.479  37.439  0.00  0.00    +0.000 C 
ATOM      6  C5  UNL     1      21.170  34.211  37.450  0.00  0.00    +0.000 C 
ATOM      7  C6  UNL     1      20.258  33.046  37.827  0.00  0.00    +0.000 C 
ATOM      8  O2  UNL     1      19.407  32.697  37.021  0.00  0.00    +0.000 OA
ATOM      9  C7  UNL     1      20.355  32.270  39.122  0.00  0.00    +0.000 C 
ATOM     10  C8  UNL     1      21.530  32.666  40.033  0.00  0.00    +0.000 C 
ATOM     11  C9  UNL     1      22.761  33.212  39.257  0.00  0.00    +0.000 C 
ATOM     12  C10 UNL     1      23.232  32.091  38.260  0.00  0.00    +0.000 C 
ATOM     13  C11 UNL     1      23.958  33.587  40.245  0.00  0.00    +0.000 C 
ATOM     14  C12 UNL     1      23.533  34.474  41.466  0.00  0.00    +0.000 C 
ATOM     15  C13 UNL     1      24.781  32.477  40.837  0.00  0.00    +0.000 A 
ATOM     16  C14 UNL     1      26.100  32.845  40.902  0.00  0.00    +0.000 A 
ATOM     17  C15 UNL     1      26.378  34.162  40.258  0.00  0.00    +0.000 C 
ATOM     18  C16 UNL     1      25.096  34.260  39.413  0.00  0.00    +0.000 C 
ATOM     19  C17 UNL     1      24.657  35.573  38.777  0.00  0.00    +0.000 C 
ATOM     20  C18 UNL     1      23.493  35.258  37.805  0.00  0.00    +0.000 C 
ATOM     21  C19 UNL     1      22.280  34.524  38.486  0.00  0.00    +0.000 C 
ATOM     22  O3  UNL     1      21.705  35.444  39.400  0.00  0.00    +0.000 OA
ATOM     23  C20 UNL     1      20.587  36.079  38.804  0.00  0.00    +0.000 C 
ATOM     24  C21 UNL     1      20.875  37.552  38.518  0.00  0.00    +0.000 C 
ATOM     25  C22 UNL     1      26.640  32.187  41.979  0.00  0.00    +0.000 A 
ATOM     26  C23 UNL     1      27.873  32.312  42.611  0.00  0.00    +0.000 A 
ATOM     27  C24 UNL     1      28.077  31.578  43.794  0.00  0.00    +0.000 A 
ATOM     28  C25 UNL     1      27.040  30.781  44.330  0.00  0.00    +0.000 A 
ATOM     29  C26 UNL     1      25.786  30.715  43.694  0.00  0.00    +0.000 A 
ATOM     30  C27 UNL     1      25.617  31.425  42.506  0.00  0.00    +0.000 A 
ATOM     31  N1  UNL     1      24.461  31.617  41.833  0.00  0.00    +0.000 N 
ATOM     32  H33 UNL     1      23.508  31.321  42.138  0.00  0.00    +0.000 HD
ENDROOT
BRANCH  23  33
ATOM     33  O4  UNL     1      19.449  35.906  39.614  0.00  0.00    +0.000 OA
ATOM     34  H26 UNL     1      19.774  35.685  40.526  0.00  0.00    +0.000 HD
ENDBRANCH  23  33
BRANCH  24  35
ATOM     35  O5  UNL     1      20.060  38.405  39.285  0.00  0.00    +0.000 OA
ATOM     36  H28 UNL     1      19.121  38.169  39.067  0.00  0.00    +0.000 HD
ENDBRANCH  24  35
TORSDOF 2
ENDMDL
MODEL 6
REMARK VINA RESULT:    -6.596     17.515     19.639
REMARK INTER + INTRA:          -6.982
REMARK INTER:                  -6.982
REMARK INTRA:                   0.000
REMARK UNBOUND:                 0.000
REMARK  Name = CNP0071339_1.pdb
REMARK  6 active torsions:
REMARK  status: ('A' for Active; 'I' for Inactive)
REMARK    1  A    between atoms: C1_1  and  C2_2
REMARK    2  A    between atoms: C2_2  and  C3_3
REMARK    3  A    between atoms: C9_11  and  C10_12
REMARK    4  A    between atoms: C11_13  and  C12_14
REMARK    5  A    between atoms: C20_23  and  O4_24
REMARK    6  A    between atoms: C21_25  and  O5_26
REMARK                            x       y       z     vdW  Elec       q    Type
REMARK                         _______ _______ _______ _____ _____    ______ ____
ROOT
ATOM      1  C1  UNL     1       9.442  47.585  44.337  0.00  0.00    +0.000 C 
ATOM      2  C2  UNL     1       9.239  49.066  43.976  0.00  0.00    +0.000 C 
ATOM      3  C3  UNL     1       7.986  49.189  43.075  0.00  0.00    +0.000 C 
ATOM      4  O1  UNL     1       9.025  49.801  45.163  0.00  0.00    +0.000 OA
ATOM      5  C4  UNL     1       9.454  51.120  44.894  0.00  0.00    +0.000 C 
ATOM      6  C5  UNL     1      10.101  51.761  46.106  0.00  0.00    +0.000 C 
ATOM      7  C6  UNL     1       9.779  53.253  46.085  0.00  0.00    +0.000 C 
ATOM      8  O2  UNL     1       8.624  53.596  46.295  0.00  0.00    +0.000 OA
ATOM      9  C7  UNL     1      10.801  54.344  45.854  0.00  0.00    +0.000 C 
ATOM     10  C8  UNL     1      12.257  53.860  45.733  0.00  0.00    +0.000 C 
ATOM     11  C9  UNL     1      12.546  52.559  46.532  0.00  0.00    +0.000 C 
ATOM     12  C10 UNL     1      12.217  52.845  48.043  0.00  0.00    +0.000 C 
ATOM     13  C11 UNL     1      14.073  52.112  46.392  0.00  0.00    +0.000 C 
ATOM     14  C12 UNL     1      14.602  52.081  44.917  0.00  0.00    +0.000 C 
ATOM     15  C13 UNL     1      15.119  52.862  47.168  0.00  0.00    +0.000 A 
ATOM     16  C14 UNL     1      16.076  51.997  47.634  0.00  0.00    +0.000 A 
ATOM     17  C15 UNL     1      15.756  50.563  47.370  0.00  0.00    +0.000 C 
ATOM     18  C16 UNL     1      14.252  50.729  47.096  0.00  0.00    +0.000 C 
ATOM     19  C17 UNL     1      13.434  49.626  46.436  0.00  0.00    +0.000 C 
ATOM     20  C18 UNL     1      11.939  50.017  46.549  0.00  0.00    +0.000 C 
ATOM     21  C19 UNL     1      11.603  51.422  45.928  0.00  0.00    +0.000 C 
ATOM     22  O3  UNL     1      11.808  51.311  44.529  0.00  0.00    +0.000 OA
ATOM     23  C20 UNL     1      10.572  51.072  43.879  0.00  0.00    +0.000 C 
ATOM     24  C21 UNL     1      10.507  49.652  43.318  0.00  0.00    +0.000 C 
ATOM     25  C22 UNL     1      17.249  52.707  47.701  0.00  0.00    +0.000 A 
ATOM     26  C23 UNL     1      18.559  52.302  47.937  0.00  0.00    +0.000 A 
ATOM     27  C24 UNL     1      19.574  53.266  47.804  0.00  0.00    +0.000 A 
ATOM     28  C25 UNL     1      19.262  54.585  47.400  0.00  0.00    +0.000 A 
ATOM     29  C26 UNL     1      17.931  54.951  47.120  0.00  0.00    +0.000 A 
ATOM     30  C27 UNL     1      16.938  53.987  47.290  0.00  0.00    +0.000 A 
ATOM     31  N1  UNL     1      15.640  54.089  46.930  0.00  0.00    +0.000 N 
ATOM     32  H33 UNL     1      15.200  54.877  46.406  0.00  0.00    +0.000 HD
ENDROOT
BRANCH  23  33
ATOM     33  O4  UNL     1      10.356  52.046  42.886  0.00  0.00    +0.000 OA
ATOM     34  H26 UNL     1      10.038  51.568  42.075  0.00  0.00    +0.000 HD
ENDBRANCH  23  33
BRANCH  24  35
ATOM     35  O5  UNL     1      10.442  49.644  41.913  0.00  0.00    +0.000 OA
ATOM     36  H28 UNL     1       9.528  49.340  41.675  0.00  0.00    +0.000 HD
ENDBRANCH  24  35
TORSDOF 2
ENDMDL
MODEL 7
REMARK VINA RESULT:    -6.590      1.644      3.303
REMARK INTER + INTRA:          -6.975
REMARK INTER:                  -6.975
REMARK INTRA:                   0.000
REMARK UNBOUND:                 0.000
REMARK  Name = CNP0071339_1.pdb
REMARK  6 active torsions:
REMARK  status: ('A' for Active; 'I' for Inactive)
REMARK    1  A    between atoms: C1_1  and  C2_2
REMARK    2  A    between atoms: C2_2  and  C3_3
REMARK    3  A    between atoms: C9_11  and  C10_12
REMARK    4  A    between atoms: C11_13  and  C12_14
REMARK    5  A    between atoms: C20_23  and  O4_24
REMARK    6  A    between atoms: C21_25  and  O5_26
REMARK                            x       y       z     vdW  Elec       q    Type
REMARK                         _______ _______ _______ _____ _____    ______ ____
ROOT
ATOM      1  C1  UNL     1      21.667  34.801  41.112  0.00  0.00    +0.000 C 
ATOM      2  C2  UNL     1      21.988  34.218  39.725  0.00  0.00    +0.000 C 
ATOM      3  C3  UNL     1      22.719  32.868  39.912  0.00  0.00    +0.000 C 
ATOM      4  O1  UNL     1      20.778  33.992  39.032  0.00  0.00    +0.000 OA
ATOM      5  C4  UNL     1      21.089  34.069  37.657  0.00  0.00    +0.000 C 
ATOM      6  C5  UNL     1      19.965  34.699  36.858  0.00  0.00    +0.000 C 
ATOM      7  C6  UNL     1      19.933  34.042  35.480  0.00  0.00    +0.000 C 
ATOM      8  O2  UNL     1      19.574  32.875  35.406  0.00  0.00    +0.000 OA
ATOM      9  C7  UNL     1      20.285  34.748  34.189  0.00  0.00    +0.000 C 
ATOM     10  C8  UNL     1      20.595  36.249  34.330  0.00  0.00    +0.000 C 
ATOM     11  C9  UNL     1      19.849  36.928  35.511  0.00  0.00    +0.000 C 
ATOM     12  C10 UNL     1      18.306  36.736  35.275  0.00  0.00    +0.000 C 
ATOM     13  C11 UNL     1      20.187  38.487  35.600  0.00  0.00    +0.000 C 
ATOM     14  C12 UNL     1      21.718  38.818  35.541  0.00  0.00    +0.000 C 
ATOM     15  C13 UNL     1      19.546  39.422  34.612  0.00  0.00    +0.000 A 
ATOM     16  C14 UNL     1      19.212  40.603  35.224  0.00  0.00    +0.000 A 
ATOM     17  C15 UNL     1      19.444  40.591  36.698  0.00  0.00    +0.000 C 
ATOM     18  C16 UNL     1      19.522  39.067  36.889  0.00  0.00    +0.000 C 
ATOM     19  C17 UNL     1      20.080  38.448  38.164  0.00  0.00    +0.000 C 
ATOM     20  C18 UNL     1      19.774  36.930  38.123  0.00  0.00    +0.000 C 
ATOM     21  C19 UNL     1      20.336  36.203  36.847  0.00  0.00    +0.000 C 
ATOM     22  O3  UNL     1      21.751  36.251  36.939  0.00  0.00    +0.000 OA
ATOM     23  C20 UNL     1      22.240  35.031  37.470  0.00  0.00    +0.000 C 
ATOM     24  C21 UNL     1      22.798  35.224  38.878  0.00  0.00    +0.000 C 
ATOM     25  C22 UNL     1      19.291  41.579  34.263  0.00  0.00    +0.000 A 
ATOM     26  C23 UNL     1      19.227  42.966  34.352  0.00  0.00    +0.000 A 
ATOM     27  C24 UNL     1      19.482  43.707  33.183  0.00  0.00    +0.000 A 
ATOM     28  C25 UNL     1      19.832  43.052  31.981  0.00  0.00    +0.000 A 
ATOM     29  C26 UNL     1      19.937  41.648  31.936  0.00  0.00    +0.000 A 
ATOM     30  C27 UNL     1      19.649  40.933  33.098  0.00  0.00    +0.000 A 
ATOM     31  N1  UNL     1      19.839  39.611  33.304  0.00  0.00    +0.000 N 
ATOM     32  H33 UNL     1      20.296  38.940  32.650  0.00  0.00    +0.000 HD
ENDROOT
BRANCH  23  33
ATOM     33  O4  UNL     1      23.189  34.472  36.593  0.00  0.00    +0.000 OA
ATOM     34  H26 UNL     1      24.050  34.431  37.087  0.00  0.00    +0.000 HD
ENDBRANCH  23  33
BRANCH  24  35
ATOM     35  O5  UNL     1      24.183  34.986  38.933  0.00  0.00    +0.000 OA
ATOM     36  H28 UNL     1      24.492  34.906  37.993  0.00  0.00    +0.000 HD
ENDBRANCH  24  35
TORSDOF 2
ENDMDL
MODEL 8
REMARK VINA RESULT:    -6.422      2.102      2.206
REMARK INTER + INTRA:          -6.798
REMARK INTER:                  -6.798
REMARK INTRA:                   0.000
REMARK UNBOUND:                 0.000
REMARK  Name = CNP0071339_1.pdb
REMARK  6 active torsions:
REMARK  status: ('A' for Active; 'I' for Inactive)
REMARK    1  A    between atoms: C1_1  and  C2_2
REMARK    2  A    between atoms: C2_2  and  C3_3
REMARK    3  A    between atoms: C9_11  and  C10_12
REMARK    4  A    between atoms: C11_13  and  C12_14
REMARK    5  A    between atoms: C20_23  and  O4_24
REMARK    6  A    between atoms: C21_25  and  O5_26
REMARK                            x       y       z     vdW  Elec       q    Type
REMARK                         _______ _______ _______ _____ _____    ______ ____
ROOT
ATOM      1  C1  UNL     1      25.352  35.657  36.822  0.00  0.00    +0.000 C 
ATOM      2  C2  UNL     1      24.011  35.260  37.462  0.00  0.00    +0.000 C 
ATOM      3  C3  UNL     1      24.265  34.122  38.480  0.00  0.00    +0.000 C 
ATOM      4  O1  UNL     1      23.480  36.377  38.144  0.00  0.00    +0.000 OA
ATOM      5  C4  UNL     1      22.079  36.199  38.164  0.00  0.00    +0.000 C 
ATOM      6  C5  UNL     1      21.341  37.516  38.029  0.00  0.00    +0.000 C 
ATOM      7  C6  UNL     1      20.054  37.428  38.845  0.00  0.00    +0.000 C 
ATOM      8  O2  UNL     1      20.146  37.397  40.065  0.00  0.00    +0.000 OA
ATOM      9  C7  UNL     1      18.664  37.408  38.249  0.00  0.00    +0.000 C 
ATOM     10  C8  UNL     1      18.606  37.587  36.722  0.00  0.00    +0.000 C 
ATOM     11  C9  UNL     1      19.780  38.430  36.152  0.00  0.00    +0.000 C 
ATOM     12  C10 UNL     1      19.732  39.843  36.842  0.00  0.00    +0.000 C 
ATOM     13  C11 UNL     1      19.662  38.606  34.568  0.00  0.00    +0.000 C 
ATOM     14  C12 UNL     1      19.404  37.269  33.790  0.00  0.00    +0.000 C 
ATOM     15  C13 UNL     1      18.653  39.577  34.022  0.00  0.00    +0.000 A 
ATOM     16  C14 UNL     1      19.165  40.230  32.930  0.00  0.00    +0.000 A 
ATOM     17  C15 UNL     1      20.598  39.909  32.668  0.00  0.00    +0.000 C 
ATOM     18  C16 UNL     1      20.944  39.334  34.052  0.00  0.00    +0.000 C 
ATOM     19  C17 UNL     1      22.212  38.522  34.287  0.00  0.00    +0.000 C 
ATOM     20  C18 UNL     1      22.369  38.328  35.815  0.00  0.00    +0.000 C 
ATOM     21  C19 UNL     1      21.127  37.649  36.499  0.00  0.00    +0.000 C 
ATOM     22  O3  UNL     1      21.062  36.321  36.004  0.00  0.00    +0.000 OA
ATOM     23  C20 UNL     1      21.667  35.433  36.928  0.00  0.00    +0.000 C 
ATOM     24  C21 UNL     1      22.978  34.873  36.380  0.00  0.00    +0.000 C 
ATOM     25  C22 UNL     1      18.100  40.533  32.119  0.00  0.00    +0.000 A 
ATOM     26  C23 UNL     1      18.044  41.032  30.821  0.00  0.00    +0.000 A 
ATOM     27  C24 UNL     1      16.782  41.107  30.205  0.00  0.00    +0.000 A 
ATOM     28  C25 UNL     1      15.627  40.646  30.879  0.00  0.00    +0.000 A 
ATOM     29  C26 UNL     1      15.724  40.100  32.173  0.00  0.00    +0.000 A 
ATOM     30  C27 UNL     1      16.981  40.066  32.776  0.00  0.00    +0.000 A 
ATOM     31  N1  UNL     1      17.308  39.448  33.932  0.00  0.00    +0.000 N 
ATOM     32  H33 UNL     1      16.686  38.845  34.512  0.00  0.00    +0.000 HD
ENDROOT
BRANCH  23  33
ATOM     33  O4  UNL     1      20.760  34.415  37.280  0.00  0.00    +0.000 OA
ATOM     34  H26 UNL     1      20.012  34.850  37.768  0.00  0.00    +0.000 HD
ENDBRANCH  23  33
BRANCH  24  35
ATOM     35  O5  UNL     1      22.910  33.484  36.168  0.00  0.00    +0.000 OA
ATOM     36  H28 UNL     1      23.582  33.074  36.772  0.00  0.00    +0.000 HD
ENDBRANCH  24  35
TORSDOF 2
ENDMDL
MODEL 9
REMARK VINA RESULT:    -6.224      6.946      9.665
REMARK INTER + INTRA:          -6.588
REMARK INTER:                  -6.588
REMARK INTRA:                   0.000
REMARK UNBOUND:                 0.000
REMARK  Name = CNP0071339_1.pdb
REMARK  6 active torsions:
REMARK  status: ('A' for Active; 'I' for Inactive)
REMARK    1  A    between atoms: C1_1  and  C2_2
REMARK    2  A    between atoms: C2_2  and  C3_3
REMARK    3  A    between atoms: C9_11  and  C10_12
REMARK    4  A    between atoms: C11_13  and  C12_14
REMARK    5  A    between atoms: C20_23  and  O4_24
REMARK    6  A    between atoms: C21_25  and  O5_26
REMARK                            x       y       z     vdW  Elec       q    Type
REMARK                         _______ _______ _______ _____ _____    ______ ____
ROOT
ATOM      1  C1  UNL     1      21.801  32.978  37.826  0.00  0.00    +0.000 C 
ATOM      2  C2  UNL     1      22.441  32.142  38.948  0.00  0.00    +0.000 C 
ATOM      3  C3  UNL     1      21.532  30.925  39.239  0.00  0.00    +0.000 C 
ATOM      4  O1  UNL     1      23.702  31.680  38.512  0.00  0.00    +0.000 OA
ATOM      5  C4  UNL     1      24.478  31.489  39.676  0.00  0.00    +0.000 C 
ATOM      6  C5  UNL     1      25.934  31.844  39.449  0.00  0.00    +0.000 C 
ATOM      7  C6  UNL     1      26.791  30.911  40.301  0.00  0.00    +0.000 C 
ATOM      8  O2  UNL     1      26.842  29.729  39.987  0.00  0.00    +0.000 OA
ATOM      9  C7  UNL     1      27.611  31.353  41.493  0.00  0.00    +0.000 C 
ATOM     10  C8  UNL     1      27.614  32.870  41.755  0.00  0.00    +0.000 C 
ATOM     11  C9  UNL     1      27.427  33.722  40.469  0.00  0.00    +0.000 C 
ATOM     12  C10 UNL     1      28.599  33.362  39.483  0.00  0.00    +0.000 C 
ATOM     13  C11 UNL     1      27.461  35.286  40.791  0.00  0.00    +0.000 C 
ATOM     14  C12 UNL     1      26.535  35.718  41.980  0.00  0.00    +0.000 C 
ATOM     15  C13 UNL     1      28.787  35.937  41.071  0.00  0.00    +0.000 A 
ATOM     16  C14 UNL     1      28.827  37.190  40.516  0.00  0.00    +0.000 A 
ATOM     17  C15 UNL     1      27.627  37.509  39.687  0.00  0.00    +0.000 C 
ATOM     18  C16 UNL     1      27.123  36.070  39.483  0.00  0.00    +0.000 C 
ATOM     19  C17 UNL     1      25.716  35.781  38.976  0.00  0.00    +0.000 C 
ATOM     20  C18 UNL     1      25.636  34.269  38.647  0.00  0.00    +0.000 C 
ATOM     21  C19 UNL     1      26.004  33.337  39.858  0.00  0.00    +0.000 C 
ATOM     22  O3  UNL     1      24.990  33.515  40.835  0.00  0.00    +0.000 OA
ATOM     23  C20 UNL     1      24.031  32.478  40.728  0.00  0.00    +0.000 C 
ATOM     24  C21 UNL     1      22.699  33.008  40.200  0.00  0.00    +0.000 C 
ATOM     25  C22 UNL     1      29.656  37.945  41.308  0.00  0.00    +0.000 A 
ATOM     26  C23 UNL     1      29.925  39.310  41.322  0.00  0.00    +0.000 A 
ATOM     27  C24 UNL     1      30.731  39.805  42.363  0.00  0.00    +0.000 A 
ATOM     28  C25 UNL     1      31.206  38.940  43.375  0.00  0.00    +0.000 A 
ATOM     29  C26 UNL     1      30.874  37.572  43.361  0.00  0.00    +0.000 A 
ATOM     30  C27 UNL     1      30.101  37.098  42.302  0.00  0.00    +0.000 A 
ATOM     31  N1  UNL     1      29.550  35.869  42.187  0.00  0.00    +0.000 N 
ATOM     32  H33 UNL     1      29.563  35.113  42.906  0.00  0.00    +0.000 HD
ENDROOT
BRANCH  23  33
ATOM     33  O4  UNL     1      23.890  31.824  41.967  0.00  0.00    +0.000 OA
ATOM     34  H26 UNL     1      22.922  31.638  42.088  0.00  0.00    +0.000 HD
ENDBRANCH  23  33
BRANCH  24  35
ATOM     35  O5  UNL     1      21.673  32.898  41.156  0.00  0.00    +0.000 OA
ATOM     36  H28 UNL     1      21.746  31.988  41.545  0.00  0.00    +0.000 HD
ENDBRANCH  24  35
TORSDOF 2
ENDMDL
MODEL 10
REMARK VINA RESULT:    -6.116     10.558     13.263
REMARK INTER + INTRA:          -6.474
REMARK INTER:                  -6.474
REMARK INTRA:                   0.000
REMARK UNBOUND:                 0.000
REMARK  Name = CNP0071339_1.pdb
REMARK  6 active torsions:
REMARK  status: ('A' for Active; 'I' for Inactive)
REMARK    1  A    between atoms: C1_1  and  C2_2
REMARK    2  A    between atoms: C2_2  and  C3_3
REMARK    3  A    between atoms: C9_11  and  C10_12
REMARK    4  A    between atoms: C11_13  and  C12_14
REMARK    5  A    between atoms: C20_23  and  O4_24
REMARK    6  A    between atoms: C21_25  and  O5_26
REMARK                            x       y       z     vdW  Elec       q    Type
REMARK                         _______ _______ _______ _____ _____    ______ ____
ROOT
ATOM      1  C1  UNL     1      29.155  51.892  33.846  0.00  0.00    +0.000 C 
ATOM      2  C2  UNL     1      29.086  50.436  33.353  0.00  0.00    +0.000 C 
ATOM      3  C3  UNL     1      30.525  49.875  33.262  0.00  0.00    +0.000 C 
ATOM      4  O1  UNL     1      28.352  49.671  34.286  0.00  0.00    +0.000 OA
ATOM      5  C4  UNL     1      27.793  48.594  33.563  0.00  0.00    +0.000 C 
ATOM      6  C5  UNL     1      26.415  48.225  34.074  0.00  0.00    +0.000 C 
ATOM      7  C6  UNL     1      26.237  46.717  33.920  0.00  0.00    +0.000 C 
ATOM      8  O2  UNL     1      26.900  45.982  34.640  0.00  0.00    +0.000 OA
ATOM      9  C7  UNL     1      25.271  46.064  32.957  0.00  0.00    +0.000 C 
ATOM     10  C8  UNL     1      24.370  47.039  32.177  0.00  0.00    +0.000 C 
ATOM     11  C9  UNL     1      24.069  48.355  32.946  0.00  0.00    +0.000 C 
ATOM     12  C10 UNL     1      23.367  47.968  34.299  0.00  0.00    +0.000 C 
ATOM     13  C11 UNL     1      23.113  49.320  32.106  0.00  0.00    +0.000 C 
ATOM     14  C12 UNL     1      23.566  49.541  30.621  0.00  0.00    +0.000 C 
ATOM     15  C13 UNL     1      21.648  48.993  32.023  0.00  0.00    +0.000 A 
ATOM     16  C14 UNL     1      20.901  50.142  32.071  0.00  0.00    +0.000 A 
ATOM     17  C15 UNL     1      21.716  51.367  32.324  0.00  0.00    +0.000 C 
ATOM     18  C16 UNL     1      22.975  50.674  32.873  0.00  0.00    +0.000 C 
ATOM     19  C17 UNL     1      24.302  51.412  33.000  0.00  0.00    +0.000 C 
ATOM     20  C18 UNL     1      25.265  50.511  33.813  0.00  0.00    +0.000 C 
ATOM     21  C19 UNL     1      25.469  49.080  33.193  0.00  0.00    +0.000 C 
ATOM     22  O3  UNL     1      26.149  49.260  31.961  0.00  0.00    +0.000 OA
ATOM     23  C20 UNL     1      27.537  49.042  32.142  0.00  0.00    +0.000 C 
ATOM     24  C21 UNL     1      28.324  50.345  32.013  0.00  0.00    +0.000 C 
ATOM     25  C22 UNL     1      19.759  49.899  31.349  0.00  0.00    +0.000 A 
ATOM     26  C23 UNL     1      18.740  50.746  30.925  0.00  0.00    +0.000 A 
ATOM     27  C24 UNL     1      17.759  50.209  30.071  0.00  0.00    +0.000 A 
ATOM     28  C25 UNL     1      17.845  48.867  29.635  0.00  0.00    +0.000 A 
ATOM     29  C26 UNL     1      18.916  48.050  30.043  0.00  0.00    +0.000 A 
ATOM     30  C27 UNL     1      19.859  48.593  30.915  0.00  0.00    +0.000 A 
ATOM     31  N1  UNL     1      21.029  48.034  31.295  0.00  0.00    +0.000 N 
ATOM     32  H33 UNL     1      21.436  47.142  30.939  0.00  0.00    +0.000 HD
ENDROOT
BRANCH  23  33
ATOM     33  O4  UNL     1      27.989  48.056  31.244  0.00  0.00    +0.000 OA
ATOM     34  H26 UNL     1      28.933  47.861  31.480  0.00  0.00    +0.000 HD
ENDBRANCH  23  33
BRANCH  24  35
ATOM     35  O5  UNL     1      29.184  50.333  30.899  0.00  0.00    +0.000 OA
ATOM     36  H28 UNL     1      29.482  49.393  30.784  0.00  0.00    +0.000 HD
ENDBRANCH  24  35
TORSDOF 2
ENDMDL
