MODEL 1
REMARK VINA RESULT:    -7.191      0.000      0.000
REMARK INTER + INTRA:          -9.010
REMARK INTER:                  -8.032
REMARK INTRA:                  -0.978
REMARK UNBOUND:                -0.978
REMARK  Name = CNP0105209_1.pdb
REMARK  2 active torsions:
REMARK  status: ('A' for Active; 'I' for Inactive)
REMARK    1  A    between atoms: N1_7  and  C5_8
REMARK    2  A    between atoms: C12_17  and  C13_18
REMARK                            x       y       z     vdW  Elec       q    Type
REMARK                         _______ _______ _______ _____ _____    ______ ____
ROOT
ATOM      1  O1  UNL     1      18.291  37.344  37.061  0.00  0.00    +0.000 OA
ATOM      2  C1  UNL     1      19.305  37.265  36.317  0.00  0.00    +0.000 C 
ATOM      3  C2  UNL     1      20.634  36.732  36.773  0.00  0.00    +0.000 C 
ATOM      4  C3  UNL     1      21.471  36.679  35.496  0.00  0.00    +0.000 C 
ATOM      5  C4  UNL     1      20.542  37.201  34.434  0.00  0.00    +0.000 C 
ATOM      6  O2  UNL     1      20.846  37.266  33.211  0.00  0.00    +0.000 OA
ATOM      7  N1  UNL     1      19.272  37.576  34.937  0.00  0.00    +0.000 N 
ATOM      8  C11 UNL     1      22.680  37.583  35.816  0.00  0.00    +0.000 C 
ATOM      9  O3  UNL     1      22.394  38.363  36.952  0.00  0.00    +0.000 OA
ATOM     10  C12 UNL     1      21.432  37.663  37.708  0.00  0.00    +0.000 C 
ATOM     11  C19 UNL     1      23.932  36.763  36.048  0.00  0.00    +0.000 C 
ATOM     12  O4  UNL     1      24.061  35.885  36.941  0.00  0.00    +0.000 OA
ATOM     13  C20 UNL     1      24.971  37.130  35.097  0.00  0.00    +0.000 A 
ATOM     14  C21 UNL     1      26.260  36.615  34.950  0.00  0.00    +0.000 A 
ATOM     15  C22 UNL     1      27.082  37.157  33.947  0.00  0.00    +0.000 A 
ATOM     16  C23 UNL     1      26.605  38.196  33.121  0.00  0.00    +0.000 A 
ATOM     17  C24 UNL     1      25.303  38.698  33.292  0.00  0.00    +0.000 A 
ATOM     18  C25 UNL     1      24.506  38.137  34.290  0.00  0.00    +0.000 A 
ATOM     19  C26 UNL     1      23.147  38.476  34.688  0.00  0.00    +0.000 C 
ATOM     20  O5  UNL     1      22.491  39.442  34.216  0.00  0.00    +0.000 OA
ENDROOT
BRANCH   7  21
ATOM     21  C5  UNL     1      18.226  38.265  34.230  0.00  0.00    +0.000 A 
ATOM     22  C6  UNL     1      18.254  39.665  34.111  0.00  0.00    +0.000 A 
ATOM     23  C7  UNL     1      17.239  40.336  33.421  0.00  0.00    +0.000 A 
ATOM     24  C8  UNL     1      16.190  39.615  32.843  0.00  0.00    +0.000 A 
ATOM     25  I1  UNL     1      14.662  40.629  31.801  0.00  0.00    +0.000 I 
ATOM     26  C9  UNL     1      16.155  38.223  32.958  0.00  0.00    +0.000 A 
ATOM     27  C10 UNL     1      17.167  37.550  33.647  0.00  0.00    +0.000 A 
ENDBRANCH   7  21
BRANCH  10  28
ATOM     28  C13 UNL     1      20.579  38.633  38.499  0.00  0.00    +0.000 A 
ATOM     29  C14 UNL     1      19.962  38.237  39.701  0.00  0.00    +0.000 A 
ATOM     30  C15 UNL     1      19.221  39.155  40.450  0.00  0.00    +0.000 A 
ATOM     31  C16 UNL     1      19.093  40.476  40.012  0.00  0.00    +0.000 A 
ATOM     32  C17 UNL     1      19.712  40.882  38.827  0.00  0.00    +0.000 A 
ATOM     33  C18 UNL     1      20.457  39.968  38.075  0.00  0.00    +0.000 A 
ENDBRANCH  10  28
TORSDOF 2
ENDMDL
MODEL 2
REMARK VINA RESULT:    -6.753      3.830      6.986
REMARK INTER + INTRA:          -8.521
REMARK INTER:                  -7.522
REMARK INTRA:                  -0.999
REMARK UNBOUND:                -0.978
REMARK  Name = CNP0105209_1.pdb
REMARK  2 active torsions:
REMARK  status: ('A' for Active; 'I' for Inactive)
REMARK    1  A    between atoms: N1_7  and  C5_8
REMARK    2  A    between atoms: C12_17  and  C13_18
REMARK                            x       y       z     vdW  Elec       q    Type
REMARK                         _______ _______ _______ _____ _____    ______ ____
ROOT
ATOM      1  O1  UNL     1      19.363  40.899  30.639  0.00  0.00    +0.000 OA
ATOM      2  C1  UNL     1      19.747  40.509  31.774  0.00  0.00    +0.000 C 
ATOM      3  C2  UNL     1      19.090  39.394  32.539  0.00  0.00    +0.000 C 
ATOM      4  C3  UNL     1      20.000  39.186  33.747  0.00  0.00    +0.000 C 
ATOM      5  C4  UNL     1      21.084  40.213  33.565  0.00  0.00    +0.000 C 
ATOM      6  O2  UNL     1      22.073  40.331  34.339  0.00  0.00    +0.000 OA
ATOM      7  N1  UNL     1      20.906  41.014  32.410  0.00  0.00    +0.000 N 
ATOM      8  C11 UNL     1      19.064  39.421  34.952  0.00  0.00    +0.000 C 
ATOM      9  O3  UNL     1      17.890  40.062  34.514  0.00  0.00    +0.000 OA
ATOM     10  C12 UNL     1      17.718  39.734  33.154  0.00  0.00    +0.000 C 
ATOM     11  C19 UNL     1      18.722  38.119  35.643  0.00  0.00    +0.000 C 
ATOM     12  O4  UNL     1      18.145  37.143  35.094  0.00  0.00    +0.000 OA
ATOM     13  C20 UNL     1      19.147  38.146  37.035  0.00  0.00    +0.000 A 
ATOM     14  C21 UNL     1      19.041  37.157  38.014  0.00  0.00    +0.000 A 
ATOM     15  C22 UNL     1      19.528  37.443  39.301  0.00  0.00    +0.000 A 
ATOM     16  C23 UNL     1      20.102  38.699  39.583  0.00  0.00    +0.000 A 
ATOM     17  C24 UNL     1      20.194  39.678  38.579  0.00  0.00    +0.000 A 
ATOM     18  C25 UNL     1      19.710  39.367  37.308  0.00  0.00    +0.000 A 
ATOM     19  C26 UNL     1      19.665  40.190  36.108  0.00  0.00    +0.000 C 
ATOM     20  O5  UNL     1      19.997  41.405  36.069  0.00  0.00    +0.000 OA
ENDROOT
BRANCH   7  21
ATOM     21  C5  UNL     1      21.654  42.186  32.041  0.00  0.00    +0.000 A 
ATOM     22  C6  UNL     1      21.181  43.465  32.380  0.00  0.00    +0.000 A 
ATOM     23  C7  UNL     1      21.909  44.605  32.026  0.00  0.00    +0.000 A 
ATOM     24  C8  UNL     1      23.116  44.477  31.331  0.00  0.00    +0.000 A 
ATOM     25  I1  UNL     1      24.213  46.198  30.798  0.00  0.00    +0.000 I 
ATOM     26  C9  UNL     1      23.592  43.209  30.989  0.00  0.00    +0.000 A 
ATOM     27  C10 UNL     1      22.867  42.068  31.342  0.00  0.00    +0.000 A 
ENDBRANCH   7  21
BRANCH  10  28
ATOM     28  C13 UNL     1      16.971  40.842  32.439  0.00  0.00    +0.000 A 
ATOM     29  C14 UNL     1      16.149  40.559  31.331  0.00  0.00    +0.000 A 
ATOM     30  C15 UNL     1      15.423  41.580  30.712  0.00  0.00    +0.000 A 
ATOM     31  C16 UNL     1      15.504  42.889  31.194  0.00  0.00    +0.000 A 
ATOM     32  C17 UNL     1      16.307  43.177  32.301  0.00  0.00    +0.000 A 
ATOM     33  C18 UNL     1      17.033  42.159  32.926  0.00  0.00    +0.000 A 
ENDBRANCH  10  28
TORSDOF 2
ENDMDL
MODEL 3
REMARK VINA RESULT:    -6.541     12.632     14.662
REMARK INTER + INTRA:          -8.284
REMARK INTER:                  -7.288
REMARK INTRA:                  -0.996
REMARK UNBOUND:                -0.978
REMARK  Name = CNP0105209_1.pdb
REMARK  2 active torsions:
REMARK  status: ('A' for Active; 'I' for Inactive)
REMARK    1  A    between atoms: N1_7  and  C5_8
REMARK    2  A    between atoms: C12_17  and  C13_18
REMARK                            x       y       z     vdW  Elec       q    Type
REMARK                         _______ _______ _______ _____ _____    ______ ____
ROOT
ATOM      1  O1  UNL     1      25.100  50.035  34.595  0.00  0.00    +0.000 OA
ATOM      2  C1  UNL     1      26.158  50.071  33.912  0.00  0.00    +0.000 C 
ATOM      3  C2  UNL     1      26.997  51.306  33.740  0.00  0.00    +0.000 C 
ATOM      4  C3  UNL     1      28.234  50.814  32.991  0.00  0.00    +0.000 C 
ATOM      5  C4  UNL     1      27.976  49.346  32.794  0.00  0.00    +0.000 C 
ATOM      6  O2  UNL     1      28.799  48.558  32.253  0.00  0.00    +0.000 OA
ATOM      7  N1  UNL     1      26.728  48.922  33.314  0.00  0.00    +0.000 N 
ATOM      8  C11 UNL     1      28.239  51.662  31.701  0.00  0.00    +0.000 C 
ATOM      9  O3  UNL     1      26.979  52.269  31.535  0.00  0.00    +0.000 OA
ATOM     10  C12 UNL     1      26.401  52.386  32.815  0.00  0.00    +0.000 C 
ATOM     11  C19 UNL     1      29.325  52.716  31.741  0.00  0.00    +0.000 C 
ATOM     12  O4  UNL     1      29.416  53.623  32.610  0.00  0.00    +0.000 OA
ATOM     13  C20 UNL     1      30.254  52.541  30.635  0.00  0.00    +0.000 A 
ATOM     14  C21 UNL     1      31.396  53.275  30.310  0.00  0.00    +0.000 A 
ATOM     15  C22 UNL     1      32.122  52.903  29.167  0.00  0.00    +0.000 A 
ATOM     16  C23 UNL     1      31.697  51.816  28.375  0.00  0.00    +0.000 A 
ATOM     17  C24 UNL     1      30.541  51.094  28.723  0.00  0.00    +0.000 A 
ATOM     18  C25 UNL     1      29.842  51.481  29.866  0.00  0.00    +0.000 A 
ATOM     19  C26 UNL     1      28.622  50.927  30.436  0.00  0.00    +0.000 C 
ATOM     20  O5  UNL     1      27.934  50.021  29.894  0.00  0.00    +0.000 OA
ENDROOT
BRANCH   7  21
ATOM     21  C5  UNL     1      26.105  47.638  33.141  0.00  0.00    +0.000 A 
ATOM     22  C6  UNL     1      25.282  47.393  32.028  0.00  0.00    +0.000 A 
ATOM     23  C7  UNL     1      24.679  46.143  31.856  0.00  0.00    +0.000 A 
ATOM     24  C8  UNL     1      24.891  45.128  32.794  0.00  0.00    +0.000 A 
ATOM     25  I1  UNL     1      23.981  43.244  32.533  0.00  0.00    +0.000 I 
ATOM     26  C9  UNL     1      25.707  45.364  33.904  0.00  0.00    +0.000 A 
ATOM     27  C10 UNL     1      26.312  46.612  34.078  0.00  0.00    +0.000 A 
ENDBRANCH   7  21
BRANCH  10  28
ATOM     28  C13 UNL     1      24.890  52.353  32.711  0.00  0.00    +0.000 A 
ATOM     29  C14 UNL     1      24.088  53.058  33.630  0.00  0.00    +0.000 A 
ATOM     30  C15 UNL     1      22.697  53.064  33.494  0.00  0.00    +0.000 A 
ATOM     31  C16 UNL     1      22.093  52.374  32.439  0.00  0.00    +0.000 A 
ATOM     32  C17 UNL     1      22.881  51.682  31.515  0.00  0.00    +0.000 A 
ATOM     33  C18 UNL     1      24.273  51.675  31.645  0.00  0.00    +0.000 A 
ENDBRANCH  10  28
TORSDOF 2
ENDMDL
MODEL 4
REMARK VINA RESULT:    -6.530      3.598      6.713
REMARK INTER + INTRA:          -8.272
REMARK INTER:                  -7.392
REMARK INTRA:                  -0.880
REMARK UNBOUND:                -0.978
REMARK  Name = CNP0105209_1.pdb
REMARK  2 active torsions:
REMARK  status: ('A' for Active; 'I' for Inactive)
REMARK    1  A    between atoms: N1_7  and  C5_8
REMARK    2  A    between atoms: C12_17  and  C13_18
REMARK                            x       y       z     vdW  Elec       q    Type
REMARK                         _______ _______ _______ _____ _____    ______ ____
ROOT
ATOM      1  O1  UNL     1      22.134  37.103  36.996  0.00  0.00    +0.000 OA
ATOM      2  C1  UNL     1      21.420  36.983  35.964  0.00  0.00    +0.000 C 
ATOM      3  C2  UNL     1      20.931  38.147  35.149  0.00  0.00    +0.000 C 
ATOM      4  C3  UNL     1      20.269  37.498  33.935  0.00  0.00    +0.000 C 
ATOM      5  C4  UNL     1      20.431  36.023  34.180  0.00  0.00    +0.000 C 
ATOM      6  O2  UNL     1      20.057  35.134  33.367  0.00  0.00    +0.000 OA
ATOM      7  N1  UNL     1      21.086  35.728  35.402  0.00  0.00    +0.000 N 
ATOM      8  C11 UNL     1      18.817  38.020  33.991  0.00  0.00    +0.000 C 
ATOM      9  O3  UNL     1      18.564  38.565  35.263  0.00  0.00    +0.000 OA
ATOM     10  C12 UNL     1      19.803  38.977  35.795  0.00  0.00    +0.000 C 
ATOM     11  C19 UNL     1      18.566  39.058  32.918  0.00  0.00    +0.000 C 
ATOM     12  O4  UNL     1      19.194  40.144  32.807  0.00  0.00    +0.000 OA
ATOM     13  C20 UNL     1      17.495  38.633  32.030  0.00  0.00    +0.000 A 
ATOM     14  C21 UNL     1      16.962  39.276  30.911  0.00  0.00    +0.000 A 
ATOM     15  C22 UNL     1      15.909  38.648  30.223  0.00  0.00    +0.000 A 
ATOM     16  C23 UNL     1      15.412  37.404  30.663  0.00  0.00    +0.000 A 
ATOM     17  C24 UNL     1      15.965  36.780  31.795  0.00  0.00    +0.000 A 
ATOM     18  C25 UNL     1      17.013  37.420  32.456  0.00  0.00    +0.000 A 
ATOM     19  C26 UNL     1      17.745  37.010  33.646  0.00  0.00    +0.000 C 
ATOM     20  O5  UNL     1      17.458  35.999  34.341  0.00  0.00    +0.000 OA
ENDROOT
BRANCH   7  21
ATOM     21  C5  UNL     1      21.244  34.436  36.013  0.00  0.00    +0.000 A 
ATOM     22  C6  UNL     1      22.399  33.673  35.771  0.00  0.00    +0.000 A 
ATOM     23  C7  UNL     1      22.556  32.418  36.368  0.00  0.00    +0.000 A 
ATOM     24  C8  UNL     1      21.561  31.915  37.212  0.00  0.00    +0.000 A 
ATOM     25  I1  UNL     1      21.799  30.023  38.112  0.00  0.00    +0.000 I 
ATOM     26  C9  UNL     1      20.409  32.667  37.457  0.00  0.00    +0.000 A 
ATOM     27  C10 UNL     1      20.250  33.922  36.862  0.00  0.00    +0.000 A 
ENDBRANCH   7  21
BRANCH  10  28
ATOM     28  C13 UNL     1      19.770  38.914  37.308  0.00  0.00    +0.000 A 
ATOM     29  C14 UNL     1      20.344  39.939  38.086  0.00  0.00    +0.000 A 
ATOM     30  C15 UNL     1      20.262  39.897  39.480  0.00  0.00    +0.000 A 
ATOM     31  C16 UNL     1      19.603  38.839  40.112  0.00  0.00    +0.000 A 
ATOM     32  C17 UNL     1      19.019  37.824  39.349  0.00  0.00    +0.000 A 
ATOM     33  C18 UNL     1      19.096  37.862  37.954  0.00  0.00    +0.000 A 
ENDBRANCH  10  28
TORSDOF 2
ENDMDL
MODEL 5
REMARK VINA RESULT:    -6.530     10.877     12.870
REMARK INTER + INTRA:          -8.271
REMARK INTER:                  -7.276
REMARK INTRA:                  -0.996
REMARK UNBOUND:                -0.978
REMARK  Name = CNP0105209_1.pdb
REMARK  2 active torsions:
REMARK  status: ('A' for Active; 'I' for Inactive)
REMARK    1  A    between atoms: N1_7  and  C5_8
REMARK    2  A    between atoms: C12_17  and  C13_18
REMARK                            x       y       z     vdW  Elec       q    Type
REMARK                         _______ _______ _______ _____ _____    ______ ____
ROOT
ATOM      1  O1  UNL     1      26.099  51.633  34.176  0.00  0.00    +0.000 OA
ATOM      2  C1  UNL     1      25.510  50.536  33.982  0.00  0.00    +0.000 C 
ATOM      3  C2  UNL     1      26.047  49.209  34.443  0.00  0.00    +0.000 C 
ATOM      4  C3  UNL     1      24.920  48.225  34.134  0.00  0.00    +0.000 C 
ATOM      5  C4  UNL     1      23.852  49.083  33.512  0.00  0.00    +0.000 C 
ATOM      6  O2  UNL     1      22.722  48.646  33.160  0.00  0.00    +0.000 OA
ATOM      7  N1  UNL     1      24.225  50.445  33.397  0.00  0.00    +0.000 N 
ATOM      8  C11 UNL     1      25.581  47.203  33.184  0.00  0.00    +0.000 C 
ATOM      9  O3  UNL     1      26.790  47.732  32.695  0.00  0.00    +0.000 OA
ATOM     10  C12 UNL     1      27.249  48.670  33.642  0.00  0.00    +0.000 C 
ATOM     11  C19 UNL     1      25.833  45.886  33.886  0.00  0.00    +0.000 C 
ATOM     12  O4  UNL     1      26.552  45.742  34.910  0.00  0.00    +0.000 OA
ATOM     13  C20 UNL     1      25.133  44.801  33.214  0.00  0.00    +0.000 A 
ATOM     14  C21 UNL     1      25.081  43.444  33.537  0.00  0.00    +0.000 A 
ATOM     15  C22 UNL     1      24.332  42.592  32.708  0.00  0.00    +0.000 A 
ATOM     16  C23 UNL     1      23.657  43.107  31.582  0.00  0.00    +0.000 A 
ATOM     17  C24 UNL     1      23.728  44.478  31.278  0.00  0.00    +0.000 A 
ATOM     18  C25 UNL     1      24.473  45.303  32.121  0.00  0.00    +0.000 A 
ATOM     19  C26 UNL     1      24.724  46.734  32.029  0.00  0.00    +0.000 C 
ATOM     20  O5  UNL     1      24.354  47.458  31.067  0.00  0.00    +0.000 OA
ENDROOT
BRANCH   7  21
ATOM     21  C5  UNL     1      23.517  51.484  32.700  0.00  0.00    +0.000 A 
ATOM     22  C6  UNL     1      22.514  52.221  33.355  0.00  0.00    +0.000 A 
ATOM     23  C7  UNL     1      21.827  53.235  32.680  0.00  0.00    +0.000 A 
ATOM     24  C8  UNL     1      22.134  53.521  31.347  0.00  0.00    +0.000 A 
ATOM     25  I1  UNL     1      21.097  55.051  30.331  0.00  0.00    +0.000 I 
ATOM     26  C9  UNL     1      23.129  52.793  30.688  0.00  0.00    +0.000 A 
ATOM     27  C10 UNL     1      23.818  51.779  31.361  0.00  0.00    +0.000 A 
ENDBRANCH   7  21
BRANCH  10  28
ATOM     28  C13 UNL     1      28.076  49.740  32.961  0.00  0.00    +0.000 A 
ATOM     29  C14 UNL     1      29.127  50.384  33.643  0.00  0.00    +0.000 A 
ATOM     30  C15 UNL     1      29.918  51.332  32.988  0.00  0.00    +0.000 A 
ATOM     31  C16 UNL     1      29.673  51.644  31.648  0.00  0.00    +0.000 A 
ATOM     32  C17 UNL     1      28.640  51.002  30.959  0.00  0.00    +0.000 A 
ATOM     33  C18 UNL     1      27.848  50.050  31.608  0.00  0.00    +0.000 A 
ENDBRANCH  10  28
TORSDOF 2
ENDMDL
MODEL 6
REMARK VINA RESULT:    -6.518      3.830      7.018
REMARK INTER + INTRA:          -8.258
REMARK INTER:                  -7.441
REMARK INTRA:                  -0.817
REMARK UNBOUND:                -0.978
REMARK  Name = CNP0105209_1.pdb
REMARK  2 active torsions:
REMARK  status: ('A' for Active; 'I' for Inactive)
REMARK    1  A    between atoms: N1_7  and  C5_8
REMARK    2  A    between atoms: C12_17  and  C13_18
REMARK                            x       y       z     vdW  Elec       q    Type
REMARK                         _______ _______ _______ _____ _____    ______ ____
ROOT
ATOM      1  O1  UNL     1      22.380  38.830  36.704  0.00  0.00    +0.000 OA
ATOM      2  C1  UNL     1      21.924  37.865  36.035  0.00  0.00    +0.000 C 
ATOM      3  C2  UNL     1      20.724  37.967  35.136  0.00  0.00    +0.000 C 
ATOM      4  C3  UNL     1      20.672  36.614  34.429  0.00  0.00    +0.000 C 
ATOM      5  C4  UNL     1      21.841  35.861  35.004  0.00  0.00    +0.000 C 
ATOM      6  O2  UNL     1      22.177  34.704  34.633  0.00  0.00    +0.000 OA
ATOM      7  N1  UNL     1      22.557  36.600  35.979  0.00  0.00    +0.000 N 
ATOM      8  C11 UNL     1      19.282  36.060  34.807  0.00  0.00    +0.000 C 
ATOM      9  O3  UNL     1      18.764  36.793  35.891  0.00  0.00    +0.000 OA
ATOM     10  C12 UNL     1      19.365  38.068  35.858  0.00  0.00    +0.000 C 
ATOM     11  C19 UNL     1      18.329  36.122  33.632  0.00  0.00    +0.000 C 
ATOM     12  O4  UNL     1      17.998  37.178  33.029  0.00  0.00    +0.000 OA
ATOM     13  C20 UNL     1      17.843  34.794  33.291  0.00  0.00    +0.000 A 
ATOM     14  C21 UNL     1      16.970  34.402  32.274  0.00  0.00    +0.000 A 
ATOM     15  C22 UNL     1      16.648  33.038  32.165  0.00  0.00    +0.000 A 
ATOM     16  C23 UNL     1      17.195  32.102  33.066  0.00  0.00    +0.000 A 
ATOM     17  C24 UNL     1      18.069  32.524  34.083  0.00  0.00    +0.000 A 
ATOM     18  C25 UNL     1      18.379  33.882  34.166  0.00  0.00    +0.000 A 
ATOM     19  C26 UNL     1      19.229  34.581  35.119  0.00  0.00    +0.000 C 
ATOM     20  O5  UNL     1      19.769  34.036  36.119  0.00  0.00    +0.000 OA
ENDROOT
BRANCH   7  21
ATOM     21  C5  UNL     1      23.606  36.119  36.836  0.00  0.00    +0.000 A 
ATOM     22  C6  UNL     1      23.315  35.702  38.147  0.00  0.00    +0.000 A 
ATOM     23  C7  UNL     1      24.334  35.230  38.981  0.00  0.00    +0.000 A 
ATOM     24  C8  UNL     1      25.650  35.170  38.513  0.00  0.00    +0.000 A 
ATOM     25  I1  UNL     1      27.185  34.457  39.773  0.00  0.00    +0.000 I 
ATOM     26  C9  UNL     1      25.948  35.583  37.212  0.00  0.00    +0.000 A 
ATOM     27  C10 UNL     1      24.931  36.055  36.376  0.00  0.00    +0.000 A 
ENDBRANCH   7  21
BRANCH  10  28
ATOM     28  C13 UNL     1      19.443  38.646  37.255  0.00  0.00    +0.000 A 
ATOM     29  C14 UNL     1      19.390  37.809  38.387  0.00  0.00    +0.000 A 
ATOM     30  C15 UNL     1      19.516  38.348  39.671  0.00  0.00    +0.000 A 
ATOM     31  C16 UNL     1      19.702  39.723  39.838  0.00  0.00    +0.000 A 
ATOM     32  C17 UNL     1      19.768  40.560  38.721  0.00  0.00    +0.000 A 
ATOM     33  C18 UNL     1      19.646  40.026  37.435  0.00  0.00    +0.000 A 
ENDBRANCH  10  28
TORSDOF 2
ENDMDL
MODEL 7
REMARK VINA RESULT:    -6.245      4.216      6.185
REMARK INTER + INTRA:          -7.954
REMARK INTER:                  -7.372
REMARK INTRA:                  -0.582
REMARK UNBOUND:                -0.978
REMARK  Name = CNP0105209_1.pdb
REMARK  2 active torsions:
REMARK  status: ('A' for Active; 'I' for Inactive)
REMARK    1  A    between atoms: N1_7  and  C5_8
REMARK    2  A    between atoms: C12_17  and  C13_18
REMARK                            x       y       z     vdW  Elec       q    Type
REMARK                         _______ _______ _______ _____ _____    ______ ____
ROOT
ATOM      1  O1  UNL     1      22.515  32.597  37.550  0.00  0.00    +0.000 OA
ATOM      2  C1  UNL     1      21.978  33.550  36.924  0.00  0.00    +0.000 C 
ATOM      3  C2  UNL     1      22.728  34.761  36.447  0.00  0.00    +0.000 C 
ATOM      4  C3  UNL     1      21.703  35.528  35.614  0.00  0.00    +0.000 C 
ATOM      5  C4  UNL     1      20.459  34.688  35.707  0.00  0.00    +0.000 C 
ATOM      6  O2  UNL     1      19.386  34.958  35.102  0.00  0.00    +0.000 OA
ATOM      7  N1  UNL     1      20.624  33.534  36.513  0.00  0.00    +0.000 N 
ATOM      8  C11 UNL     1      21.623  36.903  36.311  0.00  0.00    +0.000 C 
ATOM      9  O3  UNL     1      22.208  36.815  37.589  0.00  0.00    +0.000 OA
ATOM     10  C12 UNL     1      23.141  35.758  37.548  0.00  0.00    +0.000 C 
ATOM     11  C19 UNL     1      22.314  37.974  35.494  0.00  0.00    +0.000 C 
ATOM     12  O4  UNL     1      23.530  37.956  35.164  0.00  0.00    +0.000 OA
ATOM     13  C20 UNL     1      21.382  39.034  35.139  0.00  0.00    +0.000 A 
ATOM     14  C21 UNL     1      21.596  40.190  34.387  0.00  0.00    +0.000 A 
ATOM     15  C22 UNL     1      20.517  41.069  34.197  0.00  0.00    +0.000 A 
ATOM     16  C23 UNL     1      19.256  40.781  34.760  0.00  0.00    +0.000 A 
ATOM     17  C24 UNL     1      19.068  39.611  35.517  0.00  0.00    +0.000 A 
ATOM     18  C25 UNL     1      20.154  38.751  35.684  0.00  0.00    +0.000 A 
ATOM     19  C26 UNL     1      20.239  37.501  36.424  0.00  0.00    +0.000 C 
ATOM     20  O5  UNL     1      19.309  37.034  37.135  0.00  0.00    +0.000 OA
ENDROOT
BRANCH   7  21
ATOM     21  C5  UNL     1      19.599  32.623  36.946  0.00  0.00    +0.000 A 
ATOM     22  C6  UNL     1      19.399  32.379  38.316  0.00  0.00    +0.000 A 
ATOM     23  C7  UNL     1      18.400  31.496  38.739  0.00  0.00    +0.000 A 
ATOM     24  C8  UNL     1      17.592  30.851  37.798  0.00  0.00    +0.000 A 
ATOM     25  I1  UNL     1      16.086  29.520  38.437  0.00  0.00    +0.000 I 
ATOM     26  C9  UNL     1      17.785  31.087  36.434  0.00  0.00    +0.000 A 
ATOM     27  C10 UNL     1      18.782  31.969  36.009  0.00  0.00    +0.000 A 
ENDBRANCH   7  21
BRANCH  10  28
ATOM     28  C13 UNL     1      23.293  35.141  38.923  0.00  0.00    +0.000 A 
ATOM     29  C14 UNL     1      24.560  34.762  39.408  0.00  0.00    +0.000 A 
ATOM     30  C15 UNL     1      24.695  34.242  40.699  0.00  0.00    +0.000 A 
ATOM     31  C16 UNL     1      23.572  34.102  41.519  0.00  0.00    +0.000 A 
ATOM     32  C17 UNL     1      22.313  34.487  41.052  0.00  0.00    +0.000 A 
ATOM     33  C18 UNL     1      22.172  35.010  39.763  0.00  0.00    +0.000 A 
ENDBRANCH  10  28
TORSDOF 2
ENDMDL
MODEL 8
REMARK VINA RESULT:    -6.200      3.385      6.472
REMARK INTER + INTRA:          -7.903
REMARK INTER:                  -7.373
REMARK INTRA:                  -0.531
REMARK UNBOUND:                -0.978
REMARK  Name = CNP0105209_1.pdb
REMARK  2 active torsions:
REMARK  status: ('A' for Active; 'I' for Inactive)
REMARK    1  A    between atoms: N1_7  and  C5_8
REMARK    2  A    between atoms: C12_17  and  C13_18
REMARK                            x       y       z     vdW  Elec       q    Type
REMARK                         _______ _______ _______ _____ _____    ______ ____
ROOT
ATOM      1  O1  UNL     1      21.705  37.813  35.936  0.00  0.00    +0.000 OA
ATOM      2  C1  UNL     1      21.003  38.357  35.043  0.00  0.00    +0.000 C 
ATOM      3  C2  UNL     1      20.780  39.840  34.946  0.00  0.00    +0.000 C 
ATOM      4  C3  UNL     1      20.022  40.017  33.631  0.00  0.00    +0.000 C 
ATOM      5  C4  UNL     1      19.872  38.614  33.110  0.00  0.00    +0.000 C 
ATOM      6  O2  UNL     1      19.339  38.334  32.001  0.00  0.00    +0.000 OA
ATOM      7  N1  UNL     1      20.428  37.635  33.970  0.00  0.00    +0.000 N 
ATOM      8  C11 UNL     1      18.708  40.706  34.058  0.00  0.00    +0.000 C 
ATOM      9  O3  UNL     1      18.548  40.585  35.452  0.00  0.00    +0.000 OA
ATOM     10  C12 UNL     1      19.835  40.436  36.008  0.00  0.00    +0.000 C 
ATOM     11  C19 UNL     1      18.698  42.165  33.656  0.00  0.00    +0.000 C 
ATOM     12  O4  UNL     1      19.539  43.022  34.037  0.00  0.00    +0.000 OA
ATOM     13  C20 UNL     1      17.580  42.447  32.768  0.00  0.00    +0.000 A 
ATOM     14  C21 UNL     1      17.214  43.647  32.156  0.00  0.00    +0.000 A 
ATOM     15  C22 UNL     1      16.068  43.655  31.342  0.00  0.00    +0.000 A 
ATOM     16  C23 UNL     1      15.317  42.476  31.159  0.00  0.00    +0.000 A 
ATOM     17  C24 UNL     1      15.706  41.281  31.789  0.00  0.00    +0.000 A 
ATOM     18  C25 UNL     1      16.851  41.299  32.587  0.00  0.00    +0.000 A 
ATOM     19  C26 UNL     1      17.459  40.223  33.357  0.00  0.00    +0.000 C 
ATOM     20  O5  UNL     1      16.955  39.076  33.491  0.00  0.00    +0.000 OA
ENDROOT
BRANCH   7  21
ATOM     21  C5  UNL     1      20.304  36.207  33.856  0.00  0.00    +0.000 A 
ATOM     22  C6  UNL     1      19.230  35.538  34.470  0.00  0.00    +0.000 A 
ATOM     23  C7  UNL     1      19.106  34.149  34.357  0.00  0.00    +0.000 A 
ATOM     24  C8  UNL     1      20.051  33.418  33.631  0.00  0.00    +0.000 A 
ATOM     25  I1  UNL     1      19.861  31.324  33.461  0.00  0.00    +0.000 I 
ATOM     26  C9  UNL     1      21.122  34.076  33.019  0.00  0.00    +0.000 A 
ATOM     27  C10 UNL     1      21.248  35.464  33.130  0.00  0.00    +0.000 A 
ENDBRANCH   7  21
BRANCH  10  28
ATOM     28  C13 UNL     1      19.760  39.639  37.294  0.00  0.00    +0.000 A 
ATOM     29  C14 UNL     1      19.082  38.405  37.340  0.00  0.00    +0.000 A 
ATOM     30  C15 UNL     1      19.064  37.652  38.517  0.00  0.00    +0.000 A 
ATOM     31  C16 UNL     1      19.725  38.118  39.657  0.00  0.00    +0.000 A 
ATOM     32  C17 UNL     1      20.412  39.335  39.618  0.00  0.00    +0.000 A 
ATOM     33  C18 UNL     1      20.435  40.091  38.442  0.00  0.00    +0.000 A 
ENDBRANCH  10  28
TORSDOF 2
ENDMDL
MODEL 9
REMARK VINA RESULT:    -5.971      3.216      6.821
REMARK INTER + INTRA:          -7.647
REMARK INTER:                  -6.719
REMARK INTRA:                  -0.929
REMARK UNBOUND:                -0.978
REMARK  Name = CNP0105209_1.pdb
REMARK  2 active torsions:
REMARK  status: ('A' for Active; 'I' for Inactive)
REMARK    1  A    between atoms: N1_7  and  C5_8
REMARK    2  A    between atoms: C12_17  and  C13_18
REMARK                            x       y       z     vdW  Elec       q    Type
REMARK                         _______ _______ _______ _____ _____    ______ ____
ROOT
ATOM      1  O1  UNL     1      20.418  38.277  30.675  0.00  0.00    +0.000 OA
ATOM      2  C1  UNL     1      20.646  38.416  31.906  0.00  0.00    +0.000 C 
ATOM      3  C2  UNL     1      19.981  37.595  32.975  0.00  0.00    +0.000 C 
ATOM      4  C3  UNL     1      20.697  38.007  34.259  0.00  0.00    +0.000 C 
ATOM      5  C4  UNL     1      21.694  39.036  33.803  0.00  0.00    +0.000 C 
ATOM      6  O2  UNL     1      22.528  39.590  34.570  0.00  0.00    +0.000 OA
ATOM      7  N1  UNL     1      21.634  39.295  32.411  0.00  0.00    +0.000 N 
ATOM      8  C11 UNL     1      19.559  38.544  35.154  0.00  0.00    +0.000 C 
ATOM      9  O3  UNL     1      18.417  38.782  34.366  0.00  0.00    +0.000 OA
ATOM     10  C12 UNL     1      18.501  37.934  33.242  0.00  0.00    +0.000 C 
ATOM     11  C19 UNL     1      19.232  37.571  36.267  0.00  0.00    +0.000 C 
ATOM     12  O4  UNL     1      18.847  36.384  36.096  0.00  0.00    +0.000 OA
ATOM     13  C20 UNL     1      19.420  38.195  37.568  0.00  0.00    +0.000 A 
ATOM     14  C21 UNL     1      19.248  37.655  38.844  0.00  0.00    +0.000 A 
ATOM     15  C22 UNL     1      19.489  38.483  39.953  0.00  0.00    +0.000 A 
ATOM     16  C23 UNL     1      19.889  39.823  39.769  0.00  0.00    +0.000 A 
ATOM     17  C24 UNL     1      20.052  40.342  38.473  0.00  0.00    +0.000 A 
ATOM     18  C25 UNL     1      19.813  39.497  37.389  0.00  0.00    +0.000 A 
ATOM     19  C26 UNL     1      19.888  39.779  35.962  0.00  0.00    +0.000 C 
ATOM     20  O5  UNL     1      20.107  40.920  35.476  0.00  0.00    +0.000 OA
ENDROOT
BRANCH   7  21
ATOM     21  C5  UNL     1      22.319  40.333  31.689  0.00  0.00    +0.000 A 
ATOM     22  C6  UNL     1      21.687  41.565  31.449  0.00  0.00    +0.000 A 
ATOM     23  C7  UNL     1      22.353  42.577  30.750  0.00  0.00    +0.000 A 
ATOM     24  C8  UNL     1      23.655  42.367  30.287  0.00  0.00    +0.000 A 
ATOM     25  I1  UNL     1      24.659  43.895  29.234  0.00  0.00    +0.000 I 
ATOM     26  C9  UNL     1      24.290  41.145  30.521  0.00  0.00    +0.000 A 
ATOM     27  C10 UNL     1      23.627  40.132  31.219  0.00  0.00    +0.000 A 
ENDBRANCH   7  21
BRANCH  10  28
ATOM     28  C13 UNL     1      17.781  38.555  32.063  0.00  0.00    +0.000 A 
ATOM     29  C14 UNL     1      17.724  39.954  31.907  0.00  0.00    +0.000 A 
ATOM     30  C15 UNL     1      17.103  40.515  30.788  0.00  0.00    +0.000 A 
ATOM     31  C16 UNL     1      16.538  39.689  29.813  0.00  0.00    +0.000 A 
ATOM     32  C17 UNL     1      16.600  38.300  29.952  0.00  0.00    +0.000 A 
ATOM     33  C18 UNL     1      17.223  37.734  31.068  0.00  0.00    +0.000 A 
ENDBRANCH  10  28
TORSDOF 2
ENDMDL
MODEL 10
REMARK VINA RESULT:    -5.877      2.271      5.367
REMARK INTER + INTRA:          -7.542
REMARK INTER:                  -6.797
REMARK INTRA:                  -0.745
REMARK UNBOUND:                -0.978
REMARK  Name = CNP0105209_1.pdb
REMARK  2 active torsions:
REMARK  status: ('A' for Active; 'I' for Inactive)
REMARK    1  A    between atoms: N1_7  and  C5_8
REMARK    2  A    between atoms: C12_17  and  C13_18
REMARK                            x       y       z     vdW  Elec       q    Type
REMARK                         _______ _______ _______ _____ _____    ______ ____
ROOT
ATOM      1  O1  UNL     1      21.436  40.100  34.523  0.00  0.00    +0.000 OA
ATOM      2  C1  UNL     1      21.066  39.197  35.321  0.00  0.00    +0.000 C 
ATOM      3  C2  UNL     1      21.994  38.488  36.267  0.00  0.00    +0.000 C 
ATOM      4  C3  UNL     1      21.066  37.627  37.122  0.00  0.00    +0.000 C 
ATOM      5  C4  UNL     1      19.696  37.917  36.573  0.00  0.00    +0.000 C 
ATOM      6  O2  UNL     1      18.635  37.433  37.052  0.00  0.00    +0.000 OA
ATOM      7  N1  UNL     1      19.710  38.823  35.484  0.00  0.00    +0.000 N 
ATOM      8  C11 UNL     1      21.581  36.191  36.885  0.00  0.00    +0.000 C 
ATOM      9  O3  UNL     1      22.421  36.175  35.755  0.00  0.00    +0.000 OA
ATOM     10  C12 UNL     1      22.953  37.473  35.613  0.00  0.00    +0.000 C 
ATOM     11  C19 UNL     1      22.325  35.669  38.096  0.00  0.00    +0.000 C 
ATOM     12  O4  UNL     1      23.353  36.201  38.593  0.00  0.00    +0.000 OA
ATOM     13  C20 UNL     1      21.693  34.463  38.609  0.00  0.00    +0.000 A 
ATOM     14  C21 UNL     1      22.041  33.678  39.709  0.00  0.00    +0.000 A 
ATOM     15  C22 UNL     1      21.262  32.542  39.988  0.00  0.00    +0.000 A 
ATOM     16  C23 UNL     1      20.162  32.214  39.169  0.00  0.00    +0.000 A 
ATOM     17  C24 UNL     1      19.834  33.021  38.065  0.00  0.00    +0.000 A 
ATOM     18  C25 UNL     1      20.620  34.146  37.814  0.00  0.00    +0.000 A 
ATOM     19  C26 UNL     1      20.515  35.128  36.744  0.00  0.00    +0.000 C 
ATOM     20  O5  UNL     1      19.704  35.045  35.783  0.00  0.00    +0.000 OA
ENDROOT
BRANCH   7  21
ATOM     21  C5  UNL     1      18.608  39.173  34.630  0.00  0.00    +0.000 A 
ATOM     22  C6  UNL     1      18.218  40.517  34.490  0.00  0.00    +0.000 A 
ATOM     23  C7  UNL     1      17.148  40.859  33.657  0.00  0.00    +0.000 A 
ATOM     24  C8  UNL     1      16.459  39.864  32.956  0.00  0.00    +0.000 A 
ATOM     25  I1  UNL     1      14.847  40.383  31.700  0.00  0.00    +0.000 I 
ATOM     26  C9  UNL     1      16.840  38.527  33.091  0.00  0.00    +0.000 A 
ATOM     27  C10 UNL     1      17.909  38.181  33.922  0.00  0.00    +0.000 A 
ENDBRANCH   7  21
BRANCH  10  28
ATOM     28  C13 UNL     1      23.262  37.755  34.157  0.00  0.00    +0.000 A 
ATOM     29  C14 UNL     1      24.304  38.632  33.797  0.00  0.00    +0.000 A 
ATOM     30  C15 UNL     1      24.615  38.844  32.451  0.00  0.00    +0.000 A 
ATOM     31  C16 UNL     1      23.896  38.181  31.453  0.00  0.00    +0.000 A 
ATOM     32  C17 UNL     1      22.869  37.300  31.800  0.00  0.00    +0.000 A 
ATOM     33  C18 UNL     1      22.555  37.082  33.145  0.00  0.00    +0.000 A 
ENDBRANCH  10  28
TORSDOF 2
ENDMDL
