MODEL 1
REMARK VINA RESULT:    -8.689      0.000      0.000
REMARK INTER + INTRA:         -12.199
REMARK INTER:                 -10.975
REMARK INTRA:                  -1.224
REMARK UNBOUND:                -1.224
REMARK  Name = CNP0110878_1.pdb
REMARK  8 active torsions:
REMARK  status: ('A' for Active; 'I' for Inactive)
REMARK    1  A    between atoms: C2_2  and  C3_3
REMARK    2  A    between atoms: C2_2  and  C19_25
REMARK    3  A    between atoms: C3_3  and  O2_5
REMARK    4  A    between atoms: O2_5  and  C4_6
REMARK    5  A    between atoms: C7_10  and  C8_11
REMARK    6  A    between atoms: C17_22  and  C18_23
REMARK    7  A    between atoms: C17_22  and  O6_24
REMARK    8  A    between atoms: C22_28  and  C23_29
REMARK                            x       y       z     vdW  Elec       q    Type
REMARK                         _______ _______ _______ _____ _____    ______ ____
ROOT
ATOM      1  C4  UNL     1      57.820  56.470  68.649  0.00  0.00    +0.000 C 
ATOM      2  C5  UNL     1      57.985  56.341  67.171  0.00  0.00    +0.000 C 
ATOM      3  O3  UNL     1      58.396  57.282  66.441  0.00  0.00    +0.000 OA
ATOM      4  C6  UNL     1      57.624  54.998  66.705  0.00  0.00    +0.000 C 
ATOM      5  C7  UNL     1      57.940  54.454  65.492  0.00  0.00    +0.000 C 
ATOM      6  C8  UNL     1      58.378  55.347  64.359  0.00  0.00    +0.000 C 
ATOM      7  C9  UNL     1      58.159  52.954  65.302  0.00  0.00    +0.000 C 
ATOM      8  C10 UNL     1      56.916  52.047  65.414  0.00  0.00    +0.000 C 
ATOM      9  C11 UNL     1      56.011  52.371  66.611  0.00  0.00    +0.000 C 
ATOM     10  C12 UNL     1      55.198  51.222  67.135  0.00  0.00    +0.000 C 
ATOM     11  C13 UNL     1      54.463  50.359  66.432  0.00  0.00    +0.000 C 
ATOM     12  C14 UNL     1      55.227  51.314  68.575  0.00  0.00    +0.000 C 
ATOM     13  O4  UNL     1      54.559  50.601  69.370  0.00  0.00    +0.000 OA
ATOM     14  O5  UNL     1      56.085  52.318  68.981  0.00  0.00    +0.000 OA
ATOM     15  C15 UNL     1      56.814  52.825  67.864  0.00  0.00    +0.000 C 
ATOM     16  C16 UNL     1      56.920  54.355  67.881  0.00  0.00    +0.000 C 
ATOM     17  C17 UNL     1      57.567  55.010  69.127  0.00  0.00    +0.000 C 
ATOM     18  C18 UNL     1      58.877  54.291  69.537  0.00  0.00    +0.000 C 
ENDROOT
BRANCH  17  19
ATOM     19  O6  UNL     1      56.658  54.987  70.202  0.00  0.00    +0.000 OA
ATOM     20  H19 UNL     1      55.950  54.323  69.979  0.00  0.00    +0.000 HD
ENDBRANCH  17  19
BRANCH   1  21
ATOM     21  O2  UNL     1      58.990  57.039  69.240  0.00  0.00    +0.000 OA
BRANCH  21  22
ATOM     22  C3  UNL     1      58.995  57.670  70.490  0.00  0.00    +0.000 C 
ATOM     23  O1  UNL     1      57.954  57.676  71.206  0.00  0.00    +0.000 OA
BRANCH  22  25
ATOM     24  C1  UNL     1      60.669  59.438  70.534  0.00  0.00    +0.000 C 
ATOM     25  C2  UNL     1      60.250  58.261  71.007  0.00  0.00    +0.000 C 
BRANCH  25  26
ATOM     26  C19 UNL     1      61.171  57.489  71.937  0.00  0.00    +0.000 C 
ATOM     27  C20 UNL     1      62.547  57.291  71.277  0.00  0.00    +0.000 C 
ATOM     28  C21 UNL     1      63.501  56.523  72.202  0.00  0.00    +0.000 C 
ATOM     29  C22 UNL     1      62.935  55.146  72.661  0.00  0.00    +0.000 C 
ATOM     30  C23 UNL     1      62.843  54.197  71.429  0.00  0.00    +0.000 C 
ATOM     31  C24 UNL     1      63.929  54.502  73.697  0.00  0.00    +0.000 C 
ATOM     32  C25 UNL     1      63.261  53.866  74.934  0.00  0.00    +0.000 C 
ATOM     33  C26 UNL     1      61.954  53.135  74.598  0.00  0.00    +0.000 C 
ATOM     34  C27 UNL     1      60.999  54.022  73.828  0.00  0.00    +0.000 C 
ATOM     35  C28 UNL     1      59.747  53.576  73.612  0.00  0.00    +0.000 C 
ATOM     36  C29 UNL     1      61.526  55.363  73.317  0.00  0.00    +0.000 C 
ATOM     37  C30 UNL     1      60.559  56.146  72.393  0.00  0.00    +0.000 C 
ENDBRANCH  25  26
ENDBRANCH  22  25
ENDBRANCH  21  22
ENDBRANCH   1  21
TORSDOF 5
ENDMDL
MODEL 2
REMARK VINA RESULT:    -8.617      2.414      3.981
REMARK INTER + INTRA:         -12.108
REMARK INTER:                 -11.291
REMARK INTRA:                  -0.818
REMARK UNBOUND:                -1.224
REMARK  Name = CNP0110878_1.pdb
REMARK  8 active torsions:
REMARK  status: ('A' for Active; 'I' for Inactive)
REMARK    1  A    between atoms: C2_2  and  C3_3
REMARK    2  A    between atoms: C2_2  and  C19_25
REMARK    3  A    between atoms: C3_3  and  O2_5
REMARK    4  A    between atoms: O2_5  and  C4_6
REMARK    5  A    between atoms: C7_10  and  C8_11
REMARK    6  A    between atoms: C17_22  and  C18_23
REMARK    7  A    between atoms: C17_22  and  O6_24
REMARK    8  A    between atoms: C22_28  and  C23_29
REMARK                            x       y       z     vdW  Elec       q    Type
REMARK                         _______ _______ _______ _____ _____    ______ ____
ROOT
ATOM      1  C4  UNL     1      59.065  56.190  67.907  0.00  0.00    +0.000 C 
ATOM      2  C5  UNL     1      60.228  55.275  68.097  0.00  0.00    +0.000 C 
ATOM      3  O3  UNL     1      61.008  55.352  69.085  0.00  0.00    +0.000 OA
ATOM      4  C6  UNL     1      60.326  54.294  67.012  0.00  0.00    +0.000 C 
ATOM      5  C7  UNL     1      61.066  53.145  67.027  0.00  0.00    +0.000 C 
ATOM      6  C8  UNL     1      62.165  52.973  68.045  0.00  0.00    +0.000 C 
ATOM      7  C9  UNL     1      60.648  51.895  66.256  0.00  0.00    +0.000 C 
ATOM      8  C10 UNL     1      60.736  51.961  64.718  0.00  0.00    +0.000 C 
ATOM      9  C11 UNL     1      60.166  53.252  64.113  0.00  0.00    +0.000 C 
ATOM     10  C12 UNL     1      59.653  53.135  62.707  0.00  0.00    +0.000 C 
ATOM     11  C13 UNL     1      60.258  52.562  61.665  0.00  0.00    +0.000 C 
ATOM     12  C14 UNL     1      58.433  53.906  62.644  0.00  0.00    +0.000 C 
ATOM     13  O4  UNL     1      57.774  54.152  61.599  0.00  0.00    +0.000 OA
ATOM     14  O5  UNL     1      58.082  54.364  63.899  0.00  0.00    +0.000 OA
ATOM     15  C15 UNL     1      58.926  53.782  64.891  0.00  0.00    +0.000 C 
ATOM     16  C16 UNL     1      59.376  54.799  65.946  0.00  0.00    +0.000 C 
ATOM     17  C17 UNL     1      58.270  55.544  66.734  0.00  0.00    +0.000 C 
ATOM     18  C18 UNL     1      57.170  54.574  67.233  0.00  0.00    +0.000 C 
ENDROOT
BRANCH  17  19
ATOM     19  O6  UNL     1      57.691  56.535  65.917  0.00  0.00    +0.000 OA
ATOM     20  H19 UNL     1      56.719  56.567  66.132  0.00  0.00    +0.000 HD
ENDBRANCH  17  19
BRANCH   1  21
ATOM     21  O2  UNL     1      58.290  56.279  69.103  0.00  0.00    +0.000 OA
BRANCH  21  22
ATOM     22  C3  UNL     1      58.290  57.399  69.943  0.00  0.00    +0.000 C 
ATOM     23  O1  UNL     1      58.149  58.558  69.461  0.00  0.00    +0.000 OA
BRANCH  22  25
ATOM     24  C1  UNL     1      57.251  57.127  72.128  0.00  0.00    +0.000 C 
ATOM     25  C2  UNL     1      58.374  57.214  71.410  0.00  0.00    +0.000 C 
BRANCH  25  26
ATOM     26  C19 UNL     1      59.698  57.293  72.151  0.00  0.00    +0.000 C 
ATOM     27  C20 UNL     1      60.473  58.551  71.719  0.00  0.00    +0.000 C 
ATOM     28  C21 UNL     1      61.811  58.660  72.463  0.00  0.00    +0.000 C 
ATOM     29  C22 UNL     1      62.713  57.401  72.291  0.00  0.00    +0.000 C 
ATOM     30  C23 UNL     1      63.174  57.304  70.805  0.00  0.00    +0.000 C 
ATOM     31  C24 UNL     1      63.997  57.564  73.187  0.00  0.00    +0.000 C 
ATOM     32  C25 UNL     1      64.406  56.301  73.975  0.00  0.00    +0.000 C 
ATOM     33  C26 UNL     1      64.212  55.007  73.173  0.00  0.00    +0.000 C 
ATOM     34  C27 UNL     1      62.810  54.900  72.614  0.00  0.00    +0.000 C 
ATOM     35  C28 UNL     1      62.441  53.742  72.034  0.00  0.00    +0.000 C 
ATOM     36  C29 UNL     1      61.904  56.128  72.719  0.00  0.00    +0.000 C 
ATOM     37  C30 UNL     1      60.547  56.014  71.979  0.00  0.00    +0.000 C 
ENDBRANCH  25  26
ENDBRANCH  22  25
ENDBRANCH  21  22
ENDBRANCH   1  21
TORSDOF 5
ENDMDL
MODEL 3
REMARK VINA RESULT:    -8.591      1.614      2.519
REMARK INTER + INTRA:         -12.075
REMARK INTER:                 -11.025
REMARK INTRA:                  -1.050
REMARK UNBOUND:                -1.224
REMARK  Name = CNP0110878_1.pdb
REMARK  8 active torsions:
REMARK  status: ('A' for Active; 'I' for Inactive)
REMARK    1  A    between atoms: C2_2  and  C3_3
REMARK    2  A    between atoms: C2_2  and  C19_25
REMARK    3  A    between atoms: C3_3  and  O2_5
REMARK    4  A    between atoms: O2_5  and  C4_6
REMARK    5  A    between atoms: C7_10  and  C8_11
REMARK    6  A    between atoms: C17_22  and  C18_23
REMARK    7  A    between atoms: C17_22  and  O6_24
REMARK    8  A    between atoms: C22_28  and  C23_29
REMARK                            x       y       z     vdW  Elec       q    Type
REMARK                         _______ _______ _______ _____ _____    ______ ____
ROOT
ATOM      1  C4  UNL     1      57.100  55.083  69.354  0.00  0.00    +0.000 C 
ATOM      2  C5  UNL     1      57.451  55.793  68.090  0.00  0.00    +0.000 C 
ATOM      3  O3  UNL     1      57.624  57.041  68.028  0.00  0.00    +0.000 OA
ATOM      4  C6  UNL     1      57.578  54.861  66.965  0.00  0.00    +0.000 C 
ATOM      5  C7  UNL     1      58.173  55.123  65.764  0.00  0.00    +0.000 C 
ATOM      6  C8  UNL     1      58.429  56.550  65.347  0.00  0.00    +0.000 C 
ATOM      7  C9  UNL     1      58.867  54.039  64.943  0.00  0.00    +0.000 C 
ATOM      8  C10 UNL     1      57.963  52.971  64.291  0.00  0.00    +0.000 C 
ATOM      9  C11 UNL     1      56.882  52.412  65.225  0.00  0.00    +0.000 C 
ATOM     10  C12 UNL     1      56.415  51.019  64.912  0.00  0.00    +0.000 C 
ATOM     11  C13 UNL     1      56.064  50.527  63.723  0.00  0.00    +0.000 C 
ATOM     12  C14 UNL     1      56.262  50.338  66.176  0.00  0.00    +0.000 C 
ATOM     13  O4  UNL     1      55.769  49.190  66.336  0.00  0.00    +0.000 OA
ATOM     14  O5  UNL     1      56.717  51.129  67.213  0.00  0.00    +0.000 OA
ATOM     15  C15 UNL     1      57.366  52.291  66.699  0.00  0.00    +0.000 C 
ATOM     16  C16 UNL     1      56.989  53.561  67.470  0.00  0.00    +0.000 C 
ATOM     17  C17 UNL     1      57.265  53.576  68.995  0.00  0.00    +0.000 C 
ATOM     18  C18 UNL     1      58.682  53.046  69.326  0.00  0.00    +0.000 C 
ENDROOT
BRANCH  17  19
ATOM     19  O6  UNL     1      56.300  52.796  69.660  0.00  0.00    +0.000 OA
ATOM     20  H19 UNL     1      55.445  52.887  69.157  0.00  0.00    +0.000 HD
ENDBRANCH  17  19
BRANCH   1  21
ATOM     21  O2  UNL     1      57.965  55.484  70.418  0.00  0.00    +0.000 OA
BRANCH  21  22
ATOM     22  C3  UNL     1      57.612  55.410  71.771  0.00  0.00    +0.000 C 
ATOM     23  O1  UNL     1      57.074  54.365  72.233  0.00  0.00    +0.000 OA
BRANCH  22  25
ATOM     24  C1  UNL     1      56.966  57.245  73.235  0.00  0.00    +0.000 C 
ATOM     25  C2  UNL     1      57.948  56.531  72.678  0.00  0.00    +0.000 C 
BRANCH  25  26
ATOM     26  C19 UNL     1      59.379  57.007  72.862  0.00  0.00    +0.000 C 
ATOM     27  C20 UNL     1      59.762  57.986  71.737  0.00  0.00    +0.000 C 
ATOM     28  C21 UNL     1      61.201  58.491  71.908  0.00  0.00    +0.000 C 
ATOM     29  C22 UNL     1      62.250  57.342  71.984  0.00  0.00    +0.000 C 
ATOM     30  C23 UNL     1      62.319  56.623  70.603  0.00  0.00    +0.000 C 
ATOM     31  C24 UNL     1      63.666  57.959  72.281  0.00  0.00    +0.000 C 
ATOM     32  C25 UNL     1      64.499  57.204  73.338  0.00  0.00    +0.000 C 
ATOM     33  C26 UNL     1      64.354  55.679  73.235  0.00  0.00    +0.000 C 
ATOM     34  C27 UNL     1      62.901  55.253  73.243  0.00  0.00    +0.000 C 
ATOM     35  C28 UNL     1      62.621  53.939  73.331  0.00  0.00    +0.000 C 
ATOM     36  C29 UNL     1      61.837  56.345  73.123  0.00  0.00    +0.000 C 
ATOM     37  C30 UNL     1      60.382  55.836  72.964  0.00  0.00    +0.000 C 
ENDBRANCH  25  26
ENDBRANCH  22  25
ENDBRANCH  21  22
ENDBRANCH   1  21
TORSDOF 5
ENDMDL
MODEL 4
REMARK VINA RESULT:    -8.413      4.304      8.953
REMARK INTER + INTRA:         -11.851
REMARK INTER:                 -10.689
REMARK INTRA:                  -1.162
REMARK UNBOUND:                -1.224
REMARK  Name = CNP0110878_1.pdb
REMARK  8 active torsions:
REMARK  status: ('A' for Active; 'I' for Inactive)
REMARK    1  A    between atoms: C2_2  and  C3_3
REMARK    2  A    between atoms: C2_2  and  C19_25
REMARK    3  A    between atoms: C3_3  and  O2_5
REMARK    4  A    between atoms: O2_5  and  C4_6
REMARK    5  A    between atoms: C7_10  and  C8_11
REMARK    6  A    between atoms: C17_22  and  C18_23
REMARK    7  A    between atoms: C17_22  and  O6_24
REMARK    8  A    between atoms: C22_28  and  C23_29
REMARK                            x       y       z     vdW  Elec       q    Type
REMARK                         _______ _______ _______ _____ _____    ______ ____
ROOT
ATOM      1  C4  UNL     1      60.992  53.628  74.441  0.00  0.00    +0.000 C 
ATOM      2  C5  UNL     1      59.536  53.928  74.571  0.00  0.00    +0.000 C 
ATOM      3  O3  UNL     1      58.800  54.199  73.584  0.00  0.00    +0.000 OA
ATOM      4  C6  UNL     1      59.093  53.852  75.967  0.00  0.00    +0.000 C 
ATOM      5  C7  UNL     1      57.799  53.768  76.398  0.00  0.00    +0.000 C 
ATOM      6  C8  UNL     1      56.671  54.131  75.465  0.00  0.00    +0.000 C 
ATOM      7  C9  UNL     1      57.412  53.043  77.684  0.00  0.00    +0.000 C 
ATOM      8  C10 UNL     1      57.839  53.701  79.013  0.00  0.00    +0.000 C 
ATOM      9  C11 UNL     1      59.290  54.204  79.024  0.00  0.00    +0.000 C 
ATOM     10  C12 UNL     1      59.943  54.261  80.375  0.00  0.00    +0.000 C 
ATOM     11  C13 UNL     1      59.442  54.776  81.499  0.00  0.00    +0.000 C 
ATOM     12  C14 UNL     1      61.298  53.793  80.203  0.00  0.00    +0.000 C 
ATOM     13  O4  UNL     1      62.198  53.811  81.083  0.00  0.00    +0.000 OA
ATOM     14  O5  UNL     1      61.492  53.329  78.916  0.00  0.00    +0.000 OA
ATOM     15  C15 UNL     1      60.249  53.284  78.215  0.00  0.00    +0.000 C 
ATOM     16  C16 UNL     1      60.370  53.802  76.778  0.00  0.00    +0.000 C 
ATOM     17  C17 UNL     1      61.391  53.097  75.850  0.00  0.00    +0.000 C 
ATOM     18  C18 UNL     1      61.286  51.555  75.949  0.00  0.00    +0.000 C 
ENDROOT
BRANCH  17  19
ATOM     19  O6  UNL     1      62.697  53.505  76.185  0.00  0.00    +0.000 OA
ATOM     20  H19 UNL     1      62.890  54.338  75.673  0.00  0.00    +0.000 HD
ENDBRANCH  17  19
BRANCH   1  21
ATOM     21  O2  UNL     1      61.220  52.662  73.414  0.00  0.00    +0.000 OA
BRANCH  21  22
ATOM     22  C3  UNL     1      62.005  52.909  72.281  0.00  0.00    +0.000 C 
ATOM     23  O1  UNL     1      61.879  52.193  71.249  0.00  0.00    +0.000 OA
BRANCH  22  25
ATOM     24  C1  UNL     1      64.050  54.024  72.992  0.00  0.00    +0.000 C 
ATOM     25  C2  UNL     1      62.928  54.067  72.268  0.00  0.00    +0.000 C 
BRANCH  25  26
ATOM     26  C19 UNL     1      62.556  55.376  71.593  0.00  0.00    +0.000 C 
ATOM     27  C20 UNL     1      63.097  56.565  72.406  0.00  0.00    +0.000 C 
ATOM     28  C21 UNL     1      62.744  57.901  71.737  0.00  0.00    +0.000 C 
ATOM     29  C22 UNL     1      61.216  58.081  71.495  0.00  0.00    +0.000 C 
ATOM     30  C23 UNL     1      60.494  58.206  72.870  0.00  0.00    +0.000 C 
ATOM     31  C24 UNL     1      60.977  59.417  70.699  0.00  0.00    +0.000 C 
ATOM     32  C25 UNL     1      59.955  59.316  69.546  0.00  0.00    +0.000 C 
ATOM     33  C26 UNL     1      58.754  58.424  69.889  0.00  0.00    +0.000 C 
ATOM     34  C27 UNL     1      59.191  57.062  70.384  0.00  0.00    +0.000 C 
ATOM     35  C28 UNL     1      58.251  56.115  70.561  0.00  0.00    +0.000 C 
ATOM     36  C29 UNL     1      60.677  56.854  70.680  0.00  0.00    +0.000 C 
ATOM     37  C30 UNL     1      61.037  55.500  71.343  0.00  0.00    +0.000 C 
ENDBRANCH  25  26
ENDBRANCH  22  25
ENDBRANCH  21  22
ENDBRANCH   1  21
TORSDOF 5
ENDMDL
MODEL 5
REMARK VINA RESULT:    -8.371      4.333      7.580
REMARK INTER + INTRA:         -11.798
REMARK INTER:                 -10.751
REMARK INTRA:                  -1.047
REMARK UNBOUND:                -1.224
REMARK  Name = CNP0110878_1.pdb
REMARK  8 active torsions:
REMARK  status: ('A' for Active; 'I' for Inactive)
REMARK    1  A    between atoms: C2_2  and  C3_3
REMARK    2  A    between atoms: C2_2  and  C19_25
REMARK    3  A    between atoms: C3_3  and  O2_5
REMARK    4  A    between atoms: O2_5  and  C4_6
REMARK    5  A    between atoms: C7_10  and  C8_11
REMARK    6  A    between atoms: C17_22  and  C18_23
REMARK    7  A    between atoms: C17_22  and  O6_24
REMARK    8  A    between atoms: C22_28  and  C23_29
REMARK                            x       y       z     vdW  Elec       q    Type
REMARK                         _______ _______ _______ _____ _____    ______ ____
ROOT
ATOM      1  C4  UNL     1      60.971  53.991  73.863  0.00  0.00    +0.000 C 
ATOM      2  C5  UNL     1      59.543  54.324  74.137  0.00  0.00    +0.000 C 
ATOM      3  O3  UNL     1      58.923  53.909  75.153  0.00  0.00    +0.000 OA
ATOM      4  C6  UNL     1      58.981  55.188  73.093  0.00  0.00    +0.000 C 
ATOM      5  C7  UNL     1      57.827  55.915  73.183  0.00  0.00    +0.000 C 
ATOM      6  C8  UNL     1      56.816  55.589  74.253  0.00  0.00    +0.000 C 
ATOM      7  C9  UNL     1      57.636  57.236  72.442  0.00  0.00    +0.000 C 
ATOM      8  C10 UNL     1      57.501  57.163  70.907  0.00  0.00    +0.000 C 
ATOM      9  C11 UNL     1      58.528  56.245  70.232  0.00  0.00    +0.000 C 
ATOM     10  C12 UNL     1      58.867  56.590  68.810  0.00  0.00    +0.000 C 
ATOM     11  C13 UNL     1      58.021  56.869  67.817  0.00  0.00    +0.000 C 
ATOM     12  C14 UNL     1      60.292  56.410  68.666  0.00  0.00    +0.000 C 
ATOM     13  O4  UNL     1      60.936  56.482  67.586  0.00  0.00    +0.000 OA
ATOM     14  O5  UNL     1      60.872  56.123  69.887  0.00  0.00    +0.000 OA
ATOM     15  C15 UNL     1      59.916  56.278  70.935  0.00  0.00    +0.000 C 
ATOM     16  C16 UNL     1      59.995  55.150  71.970  0.00  0.00    +0.000 C 
ATOM     17  C17 UNL     1      61.354  54.931  72.681  0.00  0.00    +0.000 C 
ATOM     18  C18 UNL     1      61.967  56.267  73.170  0.00  0.00    +0.000 C 
ENDROOT
BRANCH  17  19
ATOM     19  O6  UNL     1      62.252  54.291  71.805  0.00  0.00    +0.000 OA
ATOM     20  H19 UNL     1      63.129  54.225  72.273  0.00  0.00    +0.000 HD
ENDBRANCH  17  19
BRANCH   1  21
ATOM     21  O2  UNL     1      61.775  54.220  75.021  0.00  0.00    +0.000 OA
BRANCH  21  22
ATOM     22  C3  UNL     1      62.721  53.305  75.499  0.00  0.00    +0.000 C 
ATOM     23  O1  UNL     1      63.797  53.111  74.868  0.00  0.00    +0.000 OA
BRANCH  22  25
ATOM     24  C1  UNL     1      62.580  51.293  76.863  0.00  0.00    +0.000 C 
ATOM     25  C2  UNL     1      62.491  52.624  76.793  0.00  0.00    +0.000 C 
BRANCH  25  26
ATOM     26  C19 UNL     1      61.988  53.377  78.014  0.00  0.00    +0.000 C 
ATOM     27  C20 UNL     1      62.568  52.755  79.297  0.00  0.00    +0.000 C 
ATOM     28  C21 UNL     1      62.083  53.506  80.544  0.00  0.00    +0.000 C 
ATOM     29  C22 UNL     1      60.531  53.582  80.651  0.00  0.00    +0.000 C 
ATOM     30  C23 UNL     1      59.967  52.150  80.895  0.00  0.00    +0.000 C 
ATOM     31  C24 UNL     1      60.145  54.472  81.890  0.00  0.00    +0.000 C 
ATOM     32  C25 UNL     1      59.003  55.480  81.639  0.00  0.00    +0.000 C 
ATOM     33  C26 UNL     1      57.889  54.910  80.750  0.00  0.00    +0.000 C 
ATOM     34  C27 UNL     1      58.437  54.338  79.461  0.00  0.00    +0.000 C 
ATOM     35  C28 UNL     1      57.565  53.958  78.508  0.00  0.00    +0.000 C 
ATOM     36  C29 UNL     1      59.955  54.202  79.330  0.00  0.00    +0.000 C 
ATOM     37  C30 UNL     1      60.446  53.455  78.064  0.00  0.00    +0.000 C 
ENDBRANCH  25  26
ENDBRANCH  22  25
ENDBRANCH  21  22
ENDBRANCH   1  21
TORSDOF 5
ENDMDL
MODEL 6
REMARK VINA RESULT:    -8.284      2.173      8.092
REMARK INTER + INTRA:         -11.688
REMARK INTER:                 -10.642
REMARK INTRA:                  -1.046
REMARK UNBOUND:                -1.224
REMARK  Name = CNP0110878_1.pdb
REMARK  8 active torsions:
REMARK  status: ('A' for Active; 'I' for Inactive)
REMARK    1  A    between atoms: C2_2  and  C3_3
REMARK    2  A    between atoms: C2_2  and  C19_25
REMARK    3  A    between atoms: C3_3  and  O2_5
REMARK    4  A    between atoms: O2_5  and  C4_6
REMARK    5  A    between atoms: C7_10  and  C8_11
REMARK    6  A    between atoms: C17_22  and  C18_23
REMARK    7  A    between atoms: C17_22  and  O6_24
REMARK    8  A    between atoms: C22_28  and  C23_29
REMARK                            x       y       z     vdW  Elec       q    Type
REMARK                         _______ _______ _______ _____ _____    ______ ____
ROOT
ATOM      1  C4  UNL     1      59.721  56.022  68.095  0.00  0.00    +0.000 C 
ATOM      2  C5  UNL     1      59.921  57.434  68.536  0.00  0.00    +0.000 C 
ATOM      3  O3  UNL     1      59.498  58.425  67.881  0.00  0.00    +0.000 OA
ATOM      4  C6  UNL     1      60.644  57.503  69.810  0.00  0.00    +0.000 C 
ATOM      5  C7  UNL     1      60.726  58.591  70.633  0.00  0.00    +0.000 C 
ATOM      6  C8  UNL     1      60.377  59.960  70.105  0.00  0.00    +0.000 C 
ATOM      7  C9  UNL     1      60.868  58.459  72.148  0.00  0.00    +0.000 C 
ATOM      8  C10 UNL     1      62.213  57.925  72.680  0.00  0.00    +0.000 C 
ATOM      9  C11 UNL     1      62.742  56.699  71.923  0.00  0.00    +0.000 C 
ATOM     10  C12 UNL     1      63.636  55.788  72.713  0.00  0.00    +0.000 C 
ATOM     11  C13 UNL     1      64.671  56.130  73.483  0.00  0.00    +0.000 C 
ATOM     12  C14 UNL     1      63.269  54.436  72.363  0.00  0.00    +0.000 C 
ATOM     13  O4  UNL     1      63.874  53.393  72.726  0.00  0.00    +0.000 OA
ATOM     14  O5  UNL     1      62.154  54.431  71.547  0.00  0.00    +0.000 OA
ATOM     15  C15 UNL     1      61.605  55.745  71.456  0.00  0.00    +0.000 C 
ATOM     16  C16 UNL     1      61.185  56.106  70.026  0.00  0.00    +0.000 C 
ATOM     17  C17 UNL     1      60.156  55.180  69.331  0.00  0.00    +0.000 C 
ATOM     18  C18 UNL     1      58.964  54.846  70.263  0.00  0.00    +0.000 C 
ENDROOT
BRANCH  17  19
ATOM     19  O6  UNL     1      60.787  53.988  68.925  0.00  0.00    +0.000 OA
ATOM     20  H19 UNL     1      60.831  53.388  69.720  0.00  0.00    +0.000 HD
ENDBRANCH  17  19
BRANCH   1  21
ATOM     21  O2  UNL     1      58.358  55.793  67.735  0.00  0.00    +0.000 OA
BRANCH  21  22
ATOM     22  C3  UNL     1      57.922  55.649  66.412  0.00  0.00    +0.000 C 
ATOM     23  O1  UNL     1      57.603  56.663  65.731  0.00  0.00    +0.000 OA
BRANCH  22  25
ATOM     24  C1  UNL     1      57.972  54.202  64.455  0.00  0.00    +0.000 C 
ATOM     25  C2  UNL     1      57.916  54.307  65.785  0.00  0.00    +0.000 C 
BRANCH  25  26
ATOM     26  C19 UNL     1      57.674  53.047  66.599  0.00  0.00    +0.000 C 
ATOM     27  C20 UNL     1      58.529  51.890  66.052  0.00  0.00    +0.000 C 
ATOM     28  C21 UNL     1      58.312  50.607  66.865  0.00  0.00    +0.000 C 
ATOM     29  C22 UNL     1      56.818  50.170  66.934  0.00  0.00    +0.000 C 
ATOM     30  C23 UNL     1      56.348  49.737  65.512  0.00  0.00    +0.000 C 
ATOM     31  C24 UNL     1      56.691  48.924  67.886  0.00  0.00    +0.000 C 
ATOM     32  C25 UNL     1      55.502  48.972  68.869  0.00  0.00    +0.000 C 
ATOM     33  C26 UNL     1      54.234  49.567  68.243  0.00  0.00    +0.000 C 
ATOM     34  C27 UNL     1      54.502  50.914  67.607  0.00  0.00    +0.000 C 
ATOM     35  C28 UNL     1      53.452  51.635  67.169  0.00  0.00    +0.000 C 
ATOM     36  C29 UNL     1      55.958  51.364  67.476  0.00  0.00    +0.000 C 
ATOM     37  C30 UNL     1      56.178  52.667  66.667  0.00  0.00    +0.000 C 
ENDBRANCH  25  26
ENDBRANCH  22  25
ENDBRANCH  21  22
ENDBRANCH   1  21
TORSDOF 5
ENDMDL
MODEL 7
REMARK VINA RESULT:    -8.198      2.895      8.700
REMARK INTER + INTRA:         -11.579
REMARK INTER:                 -10.750
REMARK INTRA:                  -0.828
REMARK UNBOUND:                -1.224
REMARK  Name = CNP0110878_1.pdb
REMARK  8 active torsions:
REMARK  status: ('A' for Active; 'I' for Inactive)
REMARK    1  A    between atoms: C2_2  and  C3_3
REMARK    2  A    between atoms: C2_2  and  C19_25
REMARK    3  A    between atoms: C3_3  and  O2_5
REMARK    4  A    between atoms: O2_5  and  C4_6
REMARK    5  A    between atoms: C7_10  and  C8_11
REMARK    6  A    between atoms: C17_22  and  C18_23
REMARK    7  A    between atoms: C17_22  and  O6_24
REMARK    8  A    between atoms: C22_28  and  C23_29
REMARK                            x       y       z     vdW  Elec       q    Type
REMARK                         _______ _______ _______ _____ _____    ______ ____
ROOT
ATOM      1  C4  UNL     1      59.770  55.893  68.200  0.00  0.00    +0.000 C 
ATOM      2  C5  UNL     1      59.918  57.328  68.584  0.00  0.00    +0.000 C 
ATOM      3  O3  UNL     1      59.451  58.275  67.895  0.00  0.00    +0.000 OA
ATOM      4  C6  UNL     1      60.651  57.475  69.846  0.00  0.00    +0.000 C 
ATOM      5  C7  UNL     1      60.698  58.596  70.625  0.00  0.00    +0.000 C 
ATOM      6  C8  UNL     1      60.292  59.929  70.048  0.00  0.00    +0.000 C 
ATOM      7  C9  UNL     1      60.860  58.530  72.142  0.00  0.00    +0.000 C 
ATOM      8  C10 UNL     1      62.231  58.069  72.679  0.00  0.00    +0.000 C 
ATOM      9  C11 UNL     1      62.800  56.835  71.964  0.00  0.00    +0.000 C 
ATOM     10  C12 UNL     1      63.737  55.991  72.779  0.00  0.00    +0.000 C 
ATOM     11  C13 UNL     1      64.765  56.404  73.523  0.00  0.00    +0.000 C 
ATOM     12  C14 UNL     1      63.418  54.614  72.486  0.00  0.00    +0.000 C 
ATOM     13  O4  UNL     1      64.068  53.610  72.882  0.00  0.00    +0.000 OA
ATOM     14  O5  UNL     1      62.297  54.534  71.683  0.00  0.00    +0.000 OA
ATOM     15  C15 UNL     1      61.695  55.821  71.547  0.00  0.00    +0.000 C 
ATOM     16  C16 UNL     1      61.248  56.109  70.109  0.00  0.00    +0.000 C 
ATOM     17  C17 UNL     1      60.249  55.117  69.463  0.00  0.00    +0.000 C 
ATOM     18  C18 UNL     1      59.081  54.775  70.420  0.00  0.00    +0.000 C 
ENDROOT
BRANCH  17  19
ATOM     19  O6  UNL     1      60.922  53.935  69.096  0.00  0.00    +0.000 OA
ATOM     20  H19 UNL     1      60.771  53.797  68.121  0.00  0.00    +0.000 HD
ENDBRANCH  17  19
BRANCH   1  21
ATOM     21  O2  UNL     1      58.413  55.597  67.865  0.00  0.00    +0.000 OA
BRANCH  21  22
ATOM     22  C3  UNL     1      57.941  55.523  66.549  0.00  0.00    +0.000 C 
ATOM     23  O1  UNL     1      57.603  56.572  65.932  0.00  0.00    +0.000 OA
BRANCH  22  25
ATOM     24  C1  UNL     1      57.208  53.209  66.363  0.00  0.00    +0.000 C 
ATOM     25  C2  UNL     1      57.919  54.217  65.851  0.00  0.00    +0.000 C 
BRANCH  25  26
ATOM     26  C19 UNL     1      58.818  53.933  64.660  0.00  0.00    +0.000 C 
ATOM     27  C20 UNL     1      57.986  53.886  63.366  0.00  0.00    +0.000 C 
ATOM     28  C21 UNL     1      58.875  53.612  62.145  0.00  0.00    +0.000 C 
ATOM     29  C22 UNL     1      59.714  52.307  62.278  0.00  0.00    +0.000 C 
ATOM     30  C23 UNL     1      58.753  51.080  62.263  0.00  0.00    +0.000 C 
ATOM     31  C24 UNL     1      60.674  52.186  61.037  0.00  0.00    +0.000 C 
ATOM     32  C25 UNL     1      62.118  51.752  61.368  0.00  0.00    +0.000 C 
ATOM     33  C26 UNL     1      62.183  50.687  62.471  0.00  0.00    +0.000 C 
ATOM     34  C27 UNL     1      61.418  51.112  63.706  0.00  0.00    +0.000 C 
ATOM     35  C28 UNL     1      61.527  50.358  64.816  0.00  0.00    +0.000 C 
ATOM     36  C29 UNL     1      60.543  52.363  63.608  0.00  0.00    +0.000 C 
ATOM     37  C30 UNL     1      59.656  52.648  64.846  0.00  0.00    +0.000 C 
ENDBRANCH  25  26
ENDBRANCH  22  25
ENDBRANCH  21  22
ENDBRANCH   1  21
TORSDOF 5
ENDMDL
MODEL 8
REMARK VINA RESULT:    -8.175      3.500      7.412
REMARK INTER + INTRA:         -11.550
REMARK INTER:                 -10.298
REMARK INTRA:                  -1.252
REMARK UNBOUND:                -1.224
REMARK  Name = CNP0110878_1.pdb
REMARK  8 active torsions:
REMARK  status: ('A' for Active; 'I' for Inactive)
REMARK    1  A    between atoms: C2_2  and  C3_3
REMARK    2  A    between atoms: C2_2  and  C19_25
REMARK    3  A    between atoms: C3_3  and  O2_5
REMARK    4  A    between atoms: O2_5  and  C4_6
REMARK    5  A    between atoms: C7_10  and  C8_11
REMARK    6  A    between atoms: C17_22  and  C18_23
REMARK    7  A    between atoms: C17_22  and  O6_24
REMARK    8  A    between atoms: C22_28  and  C23_29
REMARK                            x       y       z     vdW  Elec       q    Type
REMARK                         _______ _______ _______ _____ _____    ______ ____
ROOT
ATOM      1  C4  UNL     1      61.423  53.657  74.544  0.00  0.00    +0.000 C 
ATOM      2  C5  UNL     1      61.100  53.578  75.998  0.00  0.00    +0.000 C 
ATOM      3  O3  UNL     1      61.978  53.629  76.902  0.00  0.00    +0.000 OA
ATOM      4  C6  UNL     1      59.656  53.452  76.223  0.00  0.00    +0.000 C 
ATOM      5  C7  UNL     1      59.002  53.660  77.405  0.00  0.00    +0.000 C 
ATOM      6  C8  UNL     1      59.776  53.675  78.698  0.00  0.00    +0.000 C 
ATOM      7  C9  UNL     1      57.565  54.173  77.463  0.00  0.00    +0.000 C 
ATOM      8  C10 UNL     1      56.458  53.208  76.992  0.00  0.00    +0.000 C 
ATOM      9  C11 UNL     1      56.779  52.483  75.677  0.00  0.00    +0.000 C 
ATOM     10  C12 UNL     1      55.589  52.057  74.868  0.00  0.00    +0.000 C 
ATOM     11  C13 UNL     1      54.497  51.421  75.298  0.00  0.00    +0.000 C 
ATOM     12  C14 UNL     1      55.909  52.322  73.485  0.00  0.00    +0.000 C 
ATOM     13  O4  UNL     1      55.210  51.986  72.492  0.00  0.00    +0.000 OA
ATOM     14  O5  UNL     1      57.114  52.990  73.384  0.00  0.00    +0.000 OA
ATOM     15  C15 UNL     1      57.574  53.374  74.680  0.00  0.00    +0.000 C 
ATOM     16  C16 UNL     1      59.078  53.134  74.860  0.00  0.00    +0.000 C 
ATOM     17  C17 UNL     1      60.035  53.829  73.860  0.00  0.00    +0.000 C 
ATOM     18  C18 UNL     1      59.663  55.319  73.653  0.00  0.00    +0.000 C 
ENDROOT
BRANCH  17  19
ATOM     19  O6  UNL     1      60.001  53.157  72.623  0.00  0.00    +0.000 OA
ATOM     20  H19 UNL     1      59.048  52.937  72.430  0.00  0.00    +0.000 HD
ENDBRANCH  17  19
BRANCH   1  21
ATOM     21  O2  UNL     1      62.299  54.754  74.279  0.00  0.00    +0.000 OA
BRANCH  21  22
ATOM     22  C3  UNL     1      63.182  54.794  73.193  0.00  0.00    +0.000 C 
ATOM     23  O1  UNL     1      63.523  53.727  72.610  0.00  0.00    +0.000 OA
BRANCH  22  25
ATOM     24  C1  UNL     1      64.710  56.689  73.239  0.00  0.00    +0.000 C 
ATOM     25  C2  UNL     1      63.651  56.100  72.678  0.00  0.00    +0.000 C 
BRANCH  25  26
ATOM     26  C19 UNL     1      62.860  56.878  71.639  0.00  0.00    +0.000 C 
ATOM     27  C20 UNL     1      62.218  58.121  72.282  0.00  0.00    +0.000 C 
ATOM     28  C21 UNL     1      61.423  58.931  71.250  0.00  0.00    +0.000 C 
ATOM     29  C22 UNL     1      60.331  58.093  70.521  0.00  0.00    +0.000 C 
ATOM     30  C23 UNL     1      59.225  57.697  71.544  0.00  0.00    +0.000 C 
ATOM     31  C24 UNL     1      59.664  58.980  69.405  0.00  0.00    +0.000 C 
ATOM     32  C25 UNL     1      59.444  58.270  68.052  0.00  0.00    +0.000 C 
ATOM     33  C26 UNL     1      59.003  56.808  68.209  0.00  0.00    +0.000 C 
ATOM     34  C27 UNL     1      59.939  56.035  69.113  0.00  0.00    +0.000 C 
ATOM     35  C28 UNL     1      59.779  54.701  69.208  0.00  0.00    +0.000 C 
ATOM     36  C29 UNL     1      60.998  56.823  69.885  0.00  0.00    +0.000 C 
ATOM     37  C30 UNL     1      61.811  56.003  70.918  0.00  0.00    +0.000 C 
ENDBRANCH  25  26
ENDBRANCH  22  25
ENDBRANCH  21  22
ENDBRANCH   1  21
TORSDOF 5
ENDMDL
MODEL 9
REMARK VINA RESULT:    -7.811      5.077      9.783
REMARK INTER + INTRA:         -11.090
REMARK INTER:                  -9.880
REMARK INTRA:                  -1.210
REMARK UNBOUND:                -1.224
REMARK  Name = CNP0110878_1.pdb
REMARK  8 active torsions:
REMARK  status: ('A' for Active; 'I' for Inactive)
REMARK    1  A    between atoms: C2_2  and  C3_3
REMARK    2  A    between atoms: C2_2  and  C19_25
REMARK    3  A    between atoms: C3_3  and  O2_5
REMARK    4  A    between atoms: O2_5  and  C4_6
REMARK    5  A    between atoms: C7_10  and  C8_11
REMARK    6  A    between atoms: C17_22  and  C18_23
REMARK    7  A    between atoms: C17_22  and  O6_24
REMARK    8  A    between atoms: C22_28  and  C23_29
REMARK                            x       y       z     vdW  Elec       q    Type
REMARK                         _______ _______ _______ _____ _____    ______ ____
ROOT
ATOM      1  C4  UNL     1      56.969  54.555  76.143  0.00  0.00    +0.000 C 
ATOM      2  C5  UNL     1      56.280  55.004  77.389  0.00  0.00    +0.000 C 
ATOM      3  O3  UNL     1      55.159  55.579  77.384  0.00  0.00    +0.000 OA
ATOM      4  C6  UNL     1      57.065  54.679  78.585  0.00  0.00    +0.000 C 
ATOM      5  C7  UNL     1      56.605  54.669  79.872  0.00  0.00    +0.000 C 
ATOM      6  C8  UNL     1      55.316  55.371  80.214  0.00  0.00    +0.000 C 
ATOM      7  C9  UNL     1      57.175  53.732  80.935  0.00  0.00    +0.000 C 
ATOM      8  C10 UNL     1      58.611  54.020  81.422  0.00  0.00    +0.000 C 
ATOM      9  C11 UNL     1      59.607  54.317  80.293  0.00  0.00    +0.000 C 
ATOM     10  C12 UNL     1      61.041  53.990  80.594  0.00  0.00    +0.000 C 
ATOM     11  C13 UNL     1      61.734  54.303  81.690  0.00  0.00    +0.000 C 
ATOM     12  C14 UNL     1      61.594  53.401  79.397  0.00  0.00    +0.000 C 
ATOM     13  O4  UNL     1      62.806  53.107  79.216  0.00  0.00    +0.000 OA
ATOM     14  O5  UNL     1      60.609  53.212  78.448  0.00  0.00    +0.000 OA
ATOM     15  C15 UNL     1      59.325  53.483  79.009  0.00  0.00    +0.000 C 
ATOM     16  C16 UNL     1      58.429  54.286  78.060  0.00  0.00    +0.000 C 
ATOM     17  C17 UNL     1      58.148  53.679  76.663  0.00  0.00    +0.000 C 
ATOM     18  C18 UNL     1      57.769  52.180  76.755  0.00  0.00    +0.000 C 
ENDROOT
BRANCH  17  19
ATOM     19  O6  UNL     1      59.281  53.831  75.841  0.00  0.00    +0.000 OA
ATOM     20  H19 UNL     1      59.609  52.917  75.614  0.00  0.00    +0.000 HD
ENDBRANCH  17  19
BRANCH   1  21
ATOM     21  O2  UNL     1      56.074  53.819  75.308  0.00  0.00    +0.000 OA
BRANCH  21  22
ATOM     22  C3  UNL     1      55.630  54.275  74.061  0.00  0.00    +0.000 C 
ATOM     23  O1  UNL     1      54.454  54.716  73.924  0.00  0.00    +0.000 OA
BRANCH  22  25
ATOM     24  C1  UNL     1      56.843  53.194  72.248  0.00  0.00    +0.000 C 
ATOM     25  C2  UNL     1      56.571  54.316  72.919  0.00  0.00    +0.000 C 
BRANCH  25  26
ATOM     26  C19 UNL     1      57.373  55.564  72.590  0.00  0.00    +0.000 C 
ATOM     27  C20 UNL     1      57.090  56.011  71.144  0.00  0.00    +0.000 C 
ATOM     28  C21 UNL     1      57.880  57.279  70.791  0.00  0.00    +0.000 C 
ATOM     29  C22 UNL     1      59.416  57.123  71.003  0.00  0.00    +0.000 C 
ATOM     30  C23 UNL     1      59.971  56.096  69.970  0.00  0.00    +0.000 C 
ATOM     31  C24 UNL     1      60.113  58.508  70.732  0.00  0.00    +0.000 C 
ATOM     32  C25 UNL     1      61.199  58.902  71.756  0.00  0.00    +0.000 C 
ATOM     33  C26 UNL     1      62.052  57.711  72.211  0.00  0.00    +0.000 C 
ATOM     34  C27 UNL     1      61.196  56.564  72.702  0.00  0.00    +0.000 C 
ATOM     35  C28 UNL     1      61.806  55.518  73.292  0.00  0.00    +0.000 C 
ATOM     36  C29 UNL     1      59.686  56.652  72.474  0.00  0.00    +0.000 C 
ATOM     37  C30 UNL     1      58.886  55.378  72.843  0.00  0.00    +0.000 C 
ENDBRANCH  25  26
ENDBRANCH  22  25
ENDBRANCH  21  22
ENDBRANCH   1  21
TORSDOF 5
ENDMDL
MODEL 10
REMARK VINA RESULT:    -7.754      2.378      7.582
REMARK INTER + INTRA:         -11.018
REMARK INTER:                  -9.779
REMARK INTRA:                  -1.239
REMARK UNBOUND:                -1.224
REMARK  Name = CNP0110878_1.pdb
REMARK  8 active torsions:
REMARK  status: ('A' for Active; 'I' for Inactive)
REMARK    1  A    between atoms: C2_2  and  C3_3
REMARK    2  A    between atoms: C2_2  and  C19_25
REMARK    3  A    between atoms: C3_3  and  O2_5
REMARK    4  A    between atoms: O2_5  and  C4_6
REMARK    5  A    between atoms: C7_10  and  C8_11
REMARK    6  A    between atoms: C17_22  and  C18_23
REMARK    7  A    between atoms: C17_22  and  O6_24
REMARK    8  A    between atoms: C22_28  and  C23_29
REMARK                            x       y       z     vdW  Elec       q    Type
REMARK                         _______ _______ _______ _____ _____    ______ ____
ROOT
ATOM      1  C4  UNL     1      61.137  56.430  70.239  0.00  0.00    +0.000 C 
ATOM      2  C5  UNL     1      62.208  56.854  71.187  0.00  0.00    +0.000 C 
ATOM      3  O3  UNL     1      62.540  58.058  71.356  0.00  0.00    +0.000 OA
ATOM      4  C6  UNL     1      62.793  55.705  71.886  0.00  0.00    +0.000 C 
ATOM      5  C7  UNL     1      63.561  55.754  73.016  0.00  0.00    +0.000 C 
ATOM      6  C8  UNL     1      64.195  57.055  73.437  0.00  0.00    +0.000 C 
ATOM      7  C9  UNL     1      63.573  54.624  74.043  0.00  0.00    +0.000 C 
ATOM      8  C10 UNL     1      64.239  53.299  73.618  0.00  0.00    +0.000 C 
ATOM      9  C11 UNL     1      63.842  52.823  72.213  0.00  0.00    +0.000 C 
ATOM     10  C12 UNL     1      63.918  51.341  71.989  0.00  0.00    +0.000 C 
ATOM     11  C13 UNL     1      64.921  50.520  72.308  0.00  0.00    +0.000 C 
ATOM     12  C14 UNL     1      62.759  50.977  71.209  0.00  0.00    +0.000 C 
ATOM     13  O4  UNL     1      62.533  49.840  70.715  0.00  0.00    +0.000 OA
ATOM     14  O5  UNL     1      61.917  52.062  71.055  0.00  0.00    +0.000 OA
ATOM     15  C15 UNL     1      62.361  53.149  71.866  0.00  0.00    +0.000 C 
ATOM     16  C16 UNL     1      62.287  54.493  71.132  0.00  0.00    +0.000 C 
ATOM     17  C17 UNL     1      60.907  54.928  70.579  0.00  0.00    +0.000 C 
ATOM     18  C18 UNL     1      59.782  54.728  71.625  0.00  0.00    +0.000 C 
ENDROOT
BRANCH  17  19
ATOM     19  O6  UNL     1      60.608  54.193  69.416  0.00  0.00    +0.000 OA
ATOM     20  H19 UNL     1      61.242  53.426  69.377  0.00  0.00    +0.000 HD
ENDBRANCH  17  19
BRANCH   1  21
ATOM     21  O2  UNL     1      59.957  57.215  70.424  0.00  0.00    +0.000 OA
BRANCH  21  22
ATOM     22  C3  UNL     1      59.265  57.831  69.375  0.00  0.00    +0.000 C 
ATOM     23  O1  UNL     1      58.961  59.054  69.442  0.00  0.00    +0.000 OA
BRANCH  22  25
ATOM     24  C1  UNL     1      59.628  57.333  67.019  0.00  0.00    +0.000 C 
ATOM     25  C2  UNL     1      58.964  57.062  68.146  0.00  0.00    +0.000 C 
BRANCH  25  26
ATOM     26  C19 UNL     1      57.799  56.088  68.079  0.00  0.00    +0.000 C 
ATOM     27  C20 UNL     1      57.433  55.600  69.492  0.00  0.00    +0.000 C 
ATOM     28  C21 UNL     1      56.251  54.623  69.452  0.00  0.00    +0.000 C 
ATOM     29  C22 UNL     1      56.497  53.399  68.521  0.00  0.00    +0.000 C 
ATOM     30  C23 UNL     1      57.628  52.516  69.129  0.00  0.00    +0.000 C 
ATOM     31  C24 UNL     1      55.186  52.531  68.457  0.00  0.00    +0.000 C 
ATOM     32  C25 UNL     1      54.798  52.037  67.047  0.00  0.00    +0.000 C 
ATOM     33  C26 UNL     1      56.012  51.622  66.205  0.00  0.00    +0.000 C 
ATOM     34  C27 UNL     1      57.061  52.712  66.158  0.00  0.00    +0.000 C 
ATOM     35  C28 UNL     1      58.104  52.560  65.320  0.00  0.00    +0.000 C 
ATOM     36  C29 UNL     1      56.885  53.912  67.090  0.00  0.00    +0.000 C 
ATOM     37  C30 UNL     1      58.072  54.906  67.121  0.00  0.00    +0.000 C 
ENDBRANCH  25  26
ENDBRANCH  22  25
ENDBRANCH  21  22
ENDBRANCH   1  21
TORSDOF 5
ENDMDL
