MODEL 1
REMARK VINA RESULT:    -9.397      0.000      0.000
REMARK INTER + INTRA:         -13.856
REMARK INTER:                 -12.692
REMARK INTRA:                  -1.164
REMARK UNBOUND:                -1.164
REMARK  Name = CNP0591400_1.pdb
REMARK  7 active torsions:
REMARK  status: ('A' for Active; 'I' for Inactive)
REMARK    1  A    between atoms: C1_1  and  O1_2
REMARK    2  A    between atoms: O1_2  and  C2_3
REMARK    3  A    between atoms: C7_9  and  C8_10
REMARK    4  A    between atoms: C8_10  and  C9_11
REMARK    5  A    between atoms: C9_11  and  N2_12
REMARK    6  A    between atoms: C10_13  and  C11_15
REMARK    7  A    between atoms: C15_19  and  N3_20
REMARK                            x       y       z     vdW  Elec       q    Type
REMARK                         _______ _______ _______ _____ _____    ______ ____
ROOT
ATOM      1  C11 UNL     1      59.462  53.346  75.125  0.00  0.00    +0.000 C 
ATOM      2  C12 UNL     1      59.102  53.809  76.540  0.00  0.00    +0.000 C 
ATOM      3  C13 UNL     1      60.181  53.475  77.525  0.00  0.00    +0.000 A 
ATOM      4  C14 UNL     1      59.840  53.377  78.884  0.00  0.00    +0.000 A 
ATOM      5  C15 UNL     1      60.822  53.148  79.860  0.00  0.00    +0.000 A 
ATOM      6  C16 UNL     1      62.156  53.019  79.456  0.00  0.00    +0.000 A 
ATOM      7  C17 UNL     1      62.506  53.125  78.111  0.00  0.00    +0.000 A 
ATOM      8  C18 UNL     1      61.529  53.370  77.117  0.00  0.00    +0.000 A 
ATOM      9  N4  UNL     1      61.891  53.516  75.709  0.00  0.00    +0.000 N 
ATOM     10  C19 UNL     1      63.326  53.487  75.341  0.00  0.00    +0.000 C 
ATOM     11  C20 UNL     1      63.581  53.537  73.826  0.00  0.00    +0.000 C 
ATOM     12  C21 UNL     1      62.516  52.698  73.142  0.00  0.00    +0.000 C 
ATOM     13  C22 UNL     1      61.205  53.467  73.238  0.00  0.00    +0.000 C 
ATOM     14  C23 UNL     1      61.325  54.702  72.326  0.00  0.00    +0.000 C 
ATOM     15  N5  UNL     1      62.510  55.523  72.660  0.00  0.00    +0.000 N 
ATOM     16  C24 UNL     1      63.598  54.970  73.308  0.00  0.00    +0.000 A 
ATOM     17  C25 UNL     1      64.735  55.754  73.562  0.00  0.00    +0.000 A 
ATOM     18  C26 UNL     1      64.766  57.081  73.155  0.00  0.00    +0.000 A 
ATOM     19  C27 UNL     1      63.673  57.625  72.492  0.00  0.00    +0.000 A 
ATOM     20  C28 UNL     1      62.551  56.831  72.237  0.00  0.00    +0.000 A 
ATOM     21  O5  UNL     1      61.579  57.336  71.611  0.00  0.00    +0.000 OA
ATOM     22  C29 UNL     1      60.850  53.899  74.715  0.00  0.00    +0.000 C 
ENDROOT
BRANCH   1  24
ATOM     23  N2  UNL     1      57.751  55.078  74.342  0.00  0.00    +0.000 N 
ATOM     24  C10 UNL     1      58.376  53.797  74.172  0.00  0.00    +0.000 C 
ATOM     25  O2  UNL     1      58.019  53.038  73.231  0.00  0.00    +0.000 OA
ATOM     26  H12 UNL     1      58.030  55.676  75.153  0.00  0.00    +0.000 HD
BRANCH  23  27
ATOM     27  C9  UNL     1      56.750  55.605  73.414  0.00  0.00    +0.000 C 
BRANCH  27  28
ATOM     28  C8  UNL     1      57.331  56.762  72.593  0.00  0.00    +0.000 C 
BRANCH  28  35
ATOM     29  C2  UNL     1      59.421  58.942  69.120  0.00  0.00    +0.000 A 
ATOM     30  C3  UNL     1      59.230  58.286  67.872  0.00  0.00    +0.000 A 
ATOM     31  C4  UNL     1      58.503  57.083  67.796  0.00  0.00    +0.000 A 
ATOM     32  C5  UNL     1      57.986  56.558  68.977  0.00  0.00    +0.000 A 
ATOM     33  N1  UNL     1      57.223  55.459  69.113  0.00  0.00    +0.000 N 
ATOM     34  C6  UNL     1      56.915  55.378  70.427  0.00  0.00    +0.000 A 
ATOM     35  C7  UNL     1      57.512  56.421  71.136  0.00  0.00    +0.000 A 
ATOM     36  C30 UNL     1      58.175  57.178  70.185  0.00  0.00    +0.000 A 
ATOM     37  C31 UNL     1      58.887  58.373  70.292  0.00  0.00    +0.000 A 
ATOM     38  H6  UNL     1      56.900  54.817  68.356  0.00  0.00    +0.000 HD
BRANCH  29  40
ATOM     39  C1  UNL     1      59.538  61.438  69.063  0.00  0.00    +0.000 C 
ATOM     40  O1  UNL     1      60.123  60.151  69.230  0.00  0.00    +0.000 OA
ENDBRANCH  29  40
ENDBRANCH  28  35
ENDBRANCH  27  28
ENDBRANCH  23  27
ENDBRANCH   1  24
BRANCH   5  41
ATOM     41  N3  UNL     1      60.472  53.075  81.254  0.00  0.00    +0.000 N 
ATOM     42  O3  UNL     1      59.652  52.225  81.661  0.00  0.00    +0.000 OA
ATOM     43  O4  UNL     1      60.996  53.974  82.155  0.00  0.00    +0.000 OA
ENDBRANCH   5  41
TORSDOF 6
ENDMDL
MODEL 2
REMARK VINA RESULT:    -9.011      1.293      1.904
REMARK INTER + INTRA:         -13.335
REMARK INTER:                 -11.944
REMARK INTRA:                  -1.392
REMARK UNBOUND:                -1.164
REMARK  Name = CNP0591400_1.pdb
REMARK  7 active torsions:
REMARK  status: ('A' for Active; 'I' for Inactive)
REMARK    1  A    between atoms: C1_1  and  O1_2
REMARK    2  A    between atoms: O1_2  and  C2_3
REMARK    3  A    between atoms: C7_9  and  C8_10
REMARK    4  A    between atoms: C8_10  and  C9_11
REMARK    5  A    between atoms: C9_11  and  N2_12
REMARK    6  A    between atoms: C10_13  and  C11_15
REMARK    7  A    between atoms: C15_19  and  N3_20
REMARK                            x       y       z     vdW  Elec       q    Type
REMARK                         _______ _______ _______ _____ _____    ______ ____
ROOT
ATOM      1  C11 UNL     1      59.399  53.308  75.395  0.00  0.00    +0.000 C 
ATOM      2  C12 UNL     1      59.143  53.779  76.830  0.00  0.00    +0.000 C 
ATOM      3  C13 UNL     1      60.300  53.469  77.731  0.00  0.00    +0.000 A 
ATOM      4  C14 UNL     1      60.067  53.379  79.113  0.00  0.00    +0.000 A 
ATOM      5  C15 UNL     1      61.125  53.173  80.011  0.00  0.00    +0.000 A 
ATOM      6  C16 UNL     1      62.426  53.060  79.506  0.00  0.00    +0.000 A 
ATOM      7  C17 UNL     1      62.669  53.159  78.136  0.00  0.00    +0.000 A 
ATOM      8  C18 UNL     1      61.614  53.381  77.220  0.00  0.00    +0.000 A 
ATOM      9  N4  UNL     1      61.863  53.518  75.787  0.00  0.00    +0.000 N 
ATOM     10  C19 UNL     1      63.265  53.508  75.308  0.00  0.00    +0.000 C 
ATOM     11  C20 UNL     1      63.401  53.547  73.778  0.00  0.00    +0.000 C 
ATOM     12  C21 UNL     1      62.298  52.686  73.185  0.00  0.00    +0.000 C 
ATOM     13  C22 UNL     1      60.987  53.437  73.377  0.00  0.00    +0.000 C 
ATOM     14  C23 UNL     1      61.017  54.665  72.449  0.00  0.00    +0.000 C 
ATOM     15  N5  UNL     1      62.212  55.507  72.683  0.00  0.00    +0.000 N 
ATOM     16  C24 UNL     1      63.355  54.976  73.248  0.00  0.00    +0.000 A 
ATOM     17  C25 UNL     1      64.497  55.778  73.407  0.00  0.00    +0.000 A 
ATOM     18  C26 UNL     1      64.476  57.102  72.988  0.00  0.00    +0.000 A 
ATOM     19  C27 UNL     1      63.326  57.624  72.407  0.00  0.00    +0.000 A 
ATOM     20  C28 UNL     1      62.200  56.811  72.248  0.00  0.00    +0.000 A 
ATOM     21  O5  UNL     1      61.174  57.296  71.695  0.00  0.00    +0.000 OA
ATOM     22  C29 UNL     1      60.742  53.878  74.873  0.00  0.00    +0.000 C 
ENDROOT
BRANCH   1  24
ATOM     23  N2  UNL     1      57.875  52.962  73.370  0.00  0.00    +0.000 N 
ATOM     24  C10 UNL     1      58.235  53.734  74.526  0.00  0.00    +0.000 C 
ATOM     25  O2  UNL     1      57.587  54.775  74.820  0.00  0.00    +0.000 OA
ATOM     26  H12 UNL     1      58.449  52.127  73.118  0.00  0.00    +0.000 HD
BRANCH  23  27
ATOM     27  C9  UNL     1      56.717  53.276  72.533  0.00  0.00    +0.000 C 
BRANCH  27  28
ATOM     28  C8  UNL     1      57.165  53.731  71.140  0.00  0.00    +0.000 C 
BRANCH  28  35
ATOM     29  C2  UNL     1      59.295  56.482  68.126  0.00  0.00    +0.000 A 
ATOM     30  C3  UNL     1      59.178  57.858  68.467  0.00  0.00    +0.000 A 
ATOM     31  C4  UNL     1      58.440  58.258  69.597  0.00  0.00    +0.000 A 
ATOM     32  C5  UNL     1      57.827  57.267  70.360  0.00  0.00    +0.000 A 
ATOM     33  N1  UNL     1      57.129  57.431  71.497  0.00  0.00    +0.000 N 
ATOM     34  C6  UNL     1      56.782  56.190  71.905  0.00  0.00    +0.000 A 
ATOM     35  C7  UNL     1      57.240  55.231  71.002  0.00  0.00    +0.000 A 
ATOM     36  C30 UNL     1      57.926  55.939  70.031  0.00  0.00    +0.000 A 
ATOM     37  C31 UNL     1      58.654  55.511  68.920  0.00  0.00    +0.000 A 
ATOM     38  H6  UNL     1      56.927  58.330  71.990  0.00  0.00    +0.000 HD
BRANCH  29  40
ATOM     39  C1  UNL     1      59.468  55.533  65.819  0.00  0.00    +0.000 C 
ATOM     40  O1  UNL     1      60.038  56.046  67.020  0.00  0.00    +0.000 OA
ENDBRANCH  29  40
ENDBRANCH  28  35
ENDBRANCH  27  28
ENDBRANCH  23  27
ENDBRANCH   1  24
BRANCH   5  41
ATOM     41  N3  UNL     1      60.885  53.108  81.429  0.00  0.00    +0.000 N 
ATOM     42  O3  UNL     1      61.162  54.076  82.167  0.00  0.00    +0.000 OA
ATOM     43  O4  UNL     1      60.395  51.957  82.003  0.00  0.00    +0.000 OA
ENDBRANCH   5  41
TORSDOF 6
ENDMDL
MODEL 3
REMARK VINA RESULT:    -8.618      4.495     10.398
REMARK INTER + INTRA:         -12.804
REMARK INTER:                 -10.906
REMARK INTRA:                  -1.898
REMARK UNBOUND:                -1.164
REMARK  Name = CNP0591400_1.pdb
REMARK  7 active torsions:
REMARK  status: ('A' for Active; 'I' for Inactive)
REMARK    1  A    between atoms: C1_1  and  O1_2
REMARK    2  A    between atoms: O1_2  and  C2_3
REMARK    3  A    between atoms: C7_9  and  C8_10
REMARK    4  A    between atoms: C8_10  and  C9_11
REMARK    5  A    between atoms: C9_11  and  N2_12
REMARK    6  A    between atoms: C10_13  and  C11_15
REMARK    7  A    between atoms: C15_19  and  N3_20
REMARK                            x       y       z     vdW  Elec       q    Type
REMARK                         _______ _______ _______ _____ _____    ______ ____
ROOT
ATOM      1  C11 UNL     1      59.221  56.309  66.364  0.00  0.00    +0.000 C 
ATOM      2  C12 UNL     1      58.142  56.347  65.278  0.00  0.00    +0.000 C 
ATOM      3  C13 UNL     1      58.423  55.364  64.182  0.00  0.00    +0.000 A 
ATOM      4  C14 UNL     1      57.846  55.585  62.920  0.00  0.00    +0.000 A 
ATOM      5  C15 UNL     1      58.007  54.657  61.880  0.00  0.00    +0.000 A 
ATOM      6  C16 UNL     1      58.754  53.498  62.121  0.00  0.00    +0.000 A 
ATOM      7  C17 UNL     1      59.321  53.263  63.374  0.00  0.00    +0.000 A 
ATOM      8  C18 UNL     1      59.156  54.183  64.436  0.00  0.00    +0.000 A 
ATOM      9  N4  UNL     1      59.718  53.931  65.760  0.00  0.00    +0.000 N 
ATOM     10  C19 UNL     1      60.402  52.639  66.004  0.00  0.00    +0.000 C 
ATOM     11  C20 UNL     1      61.049  52.530  67.394  0.00  0.00    +0.000 C 
ATOM     12  C21 UNL     1      61.647  53.882  67.742  0.00  0.00    +0.000 C 
ATOM     13  C22 UNL     1      60.488  54.825  68.038  0.00  0.00    +0.000 C 
ATOM     14  C23 UNL     1      59.847  54.368  69.361  0.00  0.00    +0.000 C 
ATOM     15  N5  UNL     1      59.445  52.945  69.319  0.00  0.00    +0.000 N 
ATOM     16  C24 UNL     1      60.048  52.062  68.443  0.00  0.00    +0.000 A 
ATOM     17  C25 UNL     1      59.692  50.704  68.460  0.00  0.00    +0.000 A 
ATOM     18  C26 UNL     1      58.741  50.249  69.365  0.00  0.00    +0.000 A 
ATOM     19  C27 UNL     1      58.151  51.141  70.252  0.00  0.00    +0.000 A 
ATOM     20  C28 UNL     1      58.521  52.489  70.229  0.00  0.00    +0.000 A 
ATOM     21  O5  UNL     1      57.991  53.278  71.059  0.00  0.00    +0.000 OA
ATOM     22  C29 UNL     1      59.413  54.862  66.883  0.00  0.00    +0.000 C 
ENDROOT
BRANCH   1  24
ATOM     23  N2  UNL     1      59.772  58.206  67.988  0.00  0.00    +0.000 N 
ATOM     24  C10 UNL     1      58.826  57.255  67.478  0.00  0.00    +0.000 C 
ATOM     25  O2  UNL     1      57.662  57.199  67.959  0.00  0.00    +0.000 OA
ATOM     26  H12 UNL     1      60.745  58.210  67.606  0.00  0.00    +0.000 HD
BRANCH  23  27
ATOM     27  C9  UNL     1      59.433  59.198  69.010  0.00  0.00    +0.000 C 
BRANCH  27  28
ATOM     28  C8  UNL     1      60.346  59.049  70.231  0.00  0.00    +0.000 C 
BRANCH  28  35
ATOM     29  C2  UNL     1      62.762  56.089  72.798  0.00  0.00    +0.000 A 
ATOM     30  C3  UNL     1      61.940  55.102  73.409  0.00  0.00    +0.000 A 
ATOM     31  C4  UNL     1      60.544  55.119  73.233  0.00  0.00    +0.000 A 
ATOM     32  C5  UNL     1      59.998  56.133  72.450  0.00  0.00    +0.000 A 
ATOM     33  N1  UNL     1      58.706  56.296  72.116  0.00  0.00    +0.000 N 
ATOM     34  C6  UNL     1      58.664  57.375  71.302  0.00  0.00    +0.000 A 
ATOM     35  C7  UNL     1      59.939  57.918  71.142  0.00  0.00    +0.000 A 
ATOM     36  C30 UNL     1      60.782  57.095  71.867  0.00  0.00    +0.000 A 
ATOM     37  C31 UNL     1      62.169  57.102  72.020  0.00  0.00    +0.000 A 
ATOM     38  H6  UNL     1      57.901  55.692  72.394  0.00  0.00    +0.000 HD
BRANCH  29  40
ATOM     39  C1  UNL     1      64.904  57.139  73.548  0.00  0.00    +0.000 C 
ATOM     40  O1  UNL     1      64.157  56.092  72.936  0.00  0.00    +0.000 OA
ENDBRANCH  29  40
ENDBRANCH  28  35
ENDBRANCH  27  28
ENDBRANCH  23  27
ENDBRANCH   1  24
BRANCH   5  41
ATOM     41  N3  UNL     1      57.393  54.875  60.597  0.00  0.00    +0.000 N 
ATOM     42  O3  UNL     1      57.691  54.158  59.619  0.00  0.00    +0.000 OA
ATOM     43  O4  UNL     1      56.505  55.910  60.413  0.00  0.00    +0.000 OA
ENDBRANCH   5  41
TORSDOF 6
ENDMDL
MODEL 4
REMARK VINA RESULT:    -8.483      2.734      9.077
REMARK INTER + INTRA:         -12.623
REMARK INTER:                 -11.025
REMARK INTRA:                  -1.597
REMARK UNBOUND:                -1.164
REMARK  Name = CNP0591400_1.pdb
REMARK  7 active torsions:
REMARK  status: ('A' for Active; 'I' for Inactive)
REMARK    1  A    between atoms: C1_1  and  O1_2
REMARK    2  A    between atoms: O1_2  and  C2_3
REMARK    3  A    between atoms: C7_9  and  C8_10
REMARK    4  A    between atoms: C8_10  and  C9_11
REMARK    5  A    between atoms: C9_11  and  N2_12
REMARK    6  A    between atoms: C10_13  and  C11_15
REMARK    7  A    between atoms: C15_19  and  N3_20
REMARK                            x       y       z     vdW  Elec       q    Type
REMARK                         _______ _______ _______ _____ _____    ______ ____
ROOT
ATOM      1  C11 UNL     1      57.916  54.459  70.514  0.00  0.00    +0.000 C 
ATOM      2  C12 UNL     1      58.119  53.806  69.143  0.00  0.00    +0.000 C 
ATOM      3  C13 UNL     1      58.284  54.829  68.060  0.00  0.00    +0.000 A 
ATOM      4  C14 UNL     1      57.998  54.455  66.737  0.00  0.00    +0.000 A 
ATOM      5  C15 UNL     1      58.212  55.344  65.673  0.00  0.00    +0.000 A 
ATOM      6  C16 UNL     1      58.720  56.618  65.952  0.00  0.00    +0.000 A 
ATOM      7  C17 UNL     1      59.017  56.995  67.261  0.00  0.00    +0.000 A 
ATOM      8  C18 UNL     1      58.820  56.105  68.342  0.00  0.00    +0.000 A 
ATOM      9  N4  UNL     1      59.159  56.479  69.713  0.00  0.00    +0.000 N 
ATOM     10  C19 UNL     1      59.802  57.794  69.949  0.00  0.00    +0.000 C 
ATOM     11  C20 UNL     1      60.010  58.127  71.435  0.00  0.00    +0.000 C 
ATOM     12  C21 UNL     1      58.799  57.628  72.204  0.00  0.00    +0.000 C 
ATOM     13  C22 UNL     1      58.880  56.107  72.236  0.00  0.00    +0.000 C 
ATOM     14  C23 UNL     1      60.062  55.727  73.147  0.00  0.00    +0.000 C 
ATOM     15  N5  UNL     1      61.322  56.370  72.716  0.00  0.00    +0.000 N 
ATOM     16  C24 UNL     1      61.308  57.530  71.966  0.00  0.00    +0.000 A 
ATOM     17  C25 UNL     1      62.516  58.156  71.618  0.00  0.00    +0.000 A 
ATOM     18  C26 UNL     1      63.723  57.610  72.035  0.00  0.00    +0.000 A 
ATOM     19  C27 UNL     1      63.728  56.451  72.802  0.00  0.00    +0.000 A 
ATOM     20  C28 UNL     1      62.517  55.844  73.148  0.00  0.00    +0.000 A 
ATOM     21  O5  UNL     1      62.541  54.806  73.866  0.00  0.00    +0.000 OA
ATOM     22  C29 UNL     1      59.055  55.468  70.803  0.00  0.00    +0.000 C 
ENDROOT
BRANCH   1  24
ATOM     23  N2  UNL     1      59.014  52.589  71.870  0.00  0.00    +0.000 N 
ATOM     24  C10 UNL     1      57.851  53.373  71.567  0.00  0.00    +0.000 C 
ATOM     25  O2  UNL     1      56.766  53.158  72.173  0.00  0.00    +0.000 OA
ATOM     26  H12 UNL     1      59.892  52.752  71.329  0.00  0.00    +0.000 HD
BRANCH  23  27
ATOM     27  C9  UNL     1      59.039  51.577  72.927  0.00  0.00    +0.000 C 
BRANCH  27  28
ATOM     28  C8  UNL     1      60.110  51.912  73.970  0.00  0.00    +0.000 C 
BRANCH  28  35
ATOM     29  C2  UNL     1      61.950  53.103  78.018  0.00  0.00    +0.000 A 
ATOM     30  C3  UNL     1      61.007  53.723  78.884  0.00  0.00    +0.000 A 
ATOM     31  C4  UNL     1      59.683  53.950  78.460  0.00  0.00    +0.000 A 
ATOM     32  C5  UNL     1      59.334  53.554  77.171  0.00  0.00    +0.000 A 
ATOM     33  N1  UNL     1      58.120  53.630  76.598  0.00  0.00    +0.000 N 
ATOM     34  C6  UNL     1      58.251  53.077  75.372  0.00  0.00    +0.000 A 
ATOM     35  C7  UNL     1      59.568  52.672  75.154  0.00  0.00    +0.000 A 
ATOM     36  C30 UNL     1      60.241  52.967  76.327  0.00  0.00    +0.000 A 
ATOM     37  C31 UNL     1      61.558  52.724  76.719  0.00  0.00    +0.000 A 
ATOM     38  H6  UNL     1      57.243  54.004  77.025  0.00  0.00    +0.000 HD
BRANCH  29  40
ATOM     39  C1  UNL     1      64.373  52.746  77.517  0.00  0.00    +0.000 C 
ATOM     40  O1  UNL     1      63.270  52.844  78.413  0.00  0.00    +0.000 OA
ENDBRANCH  29  40
ENDBRANCH  28  35
ENDBRANCH  27  28
ENDBRANCH  23  27
ENDBRANCH   1  24
BRANCH   5  41
ATOM     41  N3  UNL     1      57.943  54.947  64.316  0.00  0.00    +0.000 N 
ATOM     42  O3  UNL     1      57.809  55.803  63.417  0.00  0.00    +0.000 OA
ATOM     43  O4  UNL     1      57.778  53.619  63.995  0.00  0.00    +0.000 OA
ENDBRANCH   5  41
TORSDOF 6
ENDMDL
MODEL 5
REMARK VINA RESULT:    -8.350      2.102      9.354
REMARK INTER + INTRA:         -12.442
REMARK INTER:                 -11.221
REMARK INTRA:                  -1.221
REMARK UNBOUND:                -1.164
REMARK  Name = CNP0591400_1.pdb
REMARK  7 active torsions:
REMARK  status: ('A' for Active; 'I' for Inactive)
REMARK    1  A    between atoms: C1_1  and  O1_2
REMARK    2  A    between atoms: O1_2  and  C2_3
REMARK    3  A    between atoms: C7_9  and  C8_10
REMARK    4  A    between atoms: C8_10  and  C9_11
REMARK    5  A    between atoms: C9_11  and  N2_12
REMARK    6  A    between atoms: C10_13  and  C11_15
REMARK    7  A    between atoms: C15_19  and  N3_20
REMARK                            x       y       z     vdW  Elec       q    Type
REMARK                         _______ _______ _______ _____ _____    ______ ____
ROOT
ATOM      1  C11 UNL     1      61.244  55.435  71.144  0.00  0.00    +0.000 C 
ATOM      2  C12 UNL     1      61.349  56.953  71.318  0.00  0.00    +0.000 C 
ATOM      3  C13 UNL     1      60.294  57.676  70.536  0.00  0.00    +0.000 A 
ATOM      4  C14 UNL     1      60.521  59.018  70.188  0.00  0.00    +0.000 A 
ATOM      5  C15 UNL     1      59.536  59.769  69.528  0.00  0.00    +0.000 A 
ATOM      6  C16 UNL     1      58.315  59.156  69.221  0.00  0.00    +0.000 A 
ATOM      7  C17 UNL     1      58.076  57.828  69.572  0.00  0.00    +0.000 A 
ATOM      8  C18 UNL     1      59.055  57.063  70.250  0.00  0.00    +0.000 A 
ATOM      9  N4  UNL     1      58.801  55.681  70.651  0.00  0.00    +0.000 N 
ATOM     10  C19 UNL     1      57.455  55.110  70.410  0.00  0.00    +0.000 C 
ATOM     11  C20 UNL     1      57.339  53.620  70.768  0.00  0.00    +0.000 C 
ATOM     12  C21 UNL     1      58.633  52.935  70.363  0.00  0.00    +0.000 C 
ATOM     13  C22 UNL     1      59.706  53.384  71.346  0.00  0.00    +0.000 C 
ATOM     14  C23 UNL     1      59.380  52.749  72.710  0.00  0.00    +0.000 C 
ATOM     15  N5  UNL     1      58.007  53.074  73.157  0.00  0.00    +0.000 N 
ATOM     16  C24 UNL     1      57.027  53.422  72.247  0.00  0.00    +0.000 A 
ATOM     17  C25 UNL     1      55.717  53.669  72.687  0.00  0.00    +0.000 A 
ATOM     18  C26 UNL     1      55.407  53.555  74.036  0.00  0.00    +0.000 A 
ATOM     19  C27 UNL     1      56.396  53.189  74.942  0.00  0.00    +0.000 A 
ATOM     20  C28 UNL     1      57.694  52.938  74.489  0.00  0.00    +0.000 A 
ATOM     21  O5  UNL     1      58.571  52.583  75.324  0.00  0.00    +0.000 OA
ATOM     22  C29 UNL     1      59.808  54.954  71.474  0.00  0.00    +0.000 C 
ENDROOT
BRANCH   1  24
ATOM     23  N2  UNL     1      62.256  54.987  73.450  0.00  0.00    +0.000 N 
ATOM     24  C10 UNL     1      62.274  54.770  72.031  0.00  0.00    +0.000 C 
ATOM     25  O2  UNL     1      63.152  54.027  71.515  0.00  0.00    +0.000 OA
ATOM     26  H12 UNL     1      61.547  55.639  73.855  0.00  0.00    +0.000 HD
BRANCH  23  27
ATOM     27  C9  UNL     1      63.175  54.316  74.370  0.00  0.00    +0.000 C 
BRANCH  27  28
ATOM     28  C8  UNL     1      62.481  53.139  75.063  0.00  0.00    +0.000 C 
BRANCH  28  35
ATOM     29  C2  UNL     1      60.012  53.964  78.859  0.00  0.00    +0.000 A 
ATOM     30  C3  UNL     1      60.786  53.849  80.048  0.00  0.00    +0.000 A 
ATOM     31  C4  UNL     1      62.142  53.478  79.989  0.00  0.00    +0.000 A 
ATOM     32  C5  UNL     1      62.695  53.224  78.736  0.00  0.00    +0.000 A 
ATOM     33  N1  UNL     1      63.974  52.913  78.460  0.00  0.00    +0.000 N 
ATOM     34  C6  UNL     1      64.053  52.817  77.114  0.00  0.00    +0.000 A 
ATOM     35  C7  UNL     1      62.804  53.042  76.533  0.00  0.00    +0.000 A 
ATOM     36  C30 UNL     1      61.954  53.322  77.587  0.00  0.00    +0.000 A 
ATOM     37  C31 UNL     1      60.609  53.692  77.613  0.00  0.00    +0.000 A 
ATOM     38  H6  UNL     1      64.759  52.804  79.140  0.00  0.00    +0.000 HD
BRANCH  29  40
ATOM     39  C1  UNL     1      57.856  54.392  80.050  0.00  0.00    +0.000 C 
ATOM     40  O1  UNL     1      58.665  54.350  78.878  0.00  0.00    +0.000 OA
ENDBRANCH  29  40
ENDBRANCH  28  35
ENDBRANCH  27  28
ENDBRANCH  23  27
ENDBRANCH   1  24
BRANCH   5  41
ATOM     41  N3  UNL     1      59.762  61.151  69.197  0.00  0.00    +0.000 N 
ATOM     42  O3  UNL     1      60.868  61.528  68.758  0.00  0.00    +0.000 OA
ATOM     43  O4  UNL     1      58.778  62.090  69.406  0.00  0.00    +0.000 OA
ENDBRANCH   5  41
TORSDOF 6
ENDMDL
MODEL 6
REMARK VINA RESULT:    -8.335      1.603      2.530
REMARK INTER + INTRA:         -12.422
REMARK INTER:                 -11.246
REMARK INTRA:                  -1.177
REMARK UNBOUND:                -1.164
REMARK  Name = CNP0591400_1.pdb
REMARK  7 active torsions:
REMARK  status: ('A' for Active; 'I' for Inactive)
REMARK    1  A    between atoms: C1_1  and  O1_2
REMARK    2  A    between atoms: O1_2  and  C2_3
REMARK    3  A    between atoms: C7_9  and  C8_10
REMARK    4  A    between atoms: C8_10  and  C9_11
REMARK    5  A    between atoms: C9_11  and  N2_12
REMARK    6  A    between atoms: C10_13  and  C11_15
REMARK    7  A    between atoms: C15_19  and  N3_20
REMARK                            x       y       z     vdW  Elec       q    Type
REMARK                         _______ _______ _______ _____ _____    ______ ____
ROOT
ATOM      1  C11 UNL     1      59.439  53.447  74.086  0.00  0.00    +0.000 C 
ATOM      2  C12 UNL     1      58.818  53.863  75.423  0.00  0.00    +0.000 C 
ATOM      3  C13 UNL     1      59.725  53.557  76.576  0.00  0.00    +0.000 A 
ATOM      4  C14 UNL     1      59.160  53.415  77.854  0.00  0.00    +0.000 A 
ATOM      5  C15 UNL     1      59.968  53.209  78.982  0.00  0.00    +0.000 A 
ATOM      6  C16 UNL     1      61.357  53.149  78.814  0.00  0.00    +0.000 A 
ATOM      7  C17 UNL     1      61.928  53.300  77.551  0.00  0.00    +0.000 A 
ATOM      8  C18 UNL     1      61.127  53.522  76.407  0.00  0.00    +0.000 A 
ATOM      9  N4  UNL     1      61.719  53.713  75.085  0.00  0.00    +0.000 N 
ATOM     10  C19 UNL     1      63.196  53.758  74.970  0.00  0.00    +0.000 C 
ATOM     11  C20 UNL     1      63.706  53.851  73.524  0.00  0.00    +0.000 C 
ATOM     12  C21 UNL     1      62.816  52.980  72.654  0.00  0.00    +0.000 C 
ATOM     13  C22 UNL     1      61.473  53.687  72.532  0.00  0.00    +0.000 C 
ATOM     14  C23 UNL     1      61.689  54.945  71.671  0.00  0.00    +0.000 C 
ATOM     15  N5  UNL     1      62.758  55.812  72.216  0.00  0.00    +0.000 N 
ATOM     16  C24 UNL     1      63.743  55.294  73.035  0.00  0.00    +0.000 A 
ATOM     17  C25 UNL     1      64.780  56.123  73.494  0.00  0.00    +0.000 A 
ATOM     18  C26 UNL     1      64.817  57.459  73.116  0.00  0.00    +0.000 A 
ATOM     19  C27 UNL     1      63.830  57.967  72.280  0.00  0.00    +0.000 A 
ATOM     20  C28 UNL     1      62.808  57.128  71.824  0.00  0.00    +0.000 A 
ATOM     21  O5  UNL     1      61.936  57.603  71.046  0.00  0.00    +0.000 OA
ATOM     22  C29 UNL     1      60.848  54.071  73.930  0.00  0.00    +0.000 C 
ENDROOT
BRANCH   1  24
ATOM     23  N2  UNL     1      58.187  55.254  72.780  0.00  0.00    +0.000 N 
ATOM     24  C10 UNL     1      58.513  53.869  72.965  0.00  0.00    +0.000 C 
ATOM     25  O2  UNL     1      58.025  52.995  72.198  0.00  0.00    +0.000 OA
ATOM     26  H12 UNL     1      58.566  55.960  73.450  0.00  0.00    +0.000 HD
BRANCH  23  27
ATOM     27  C9  UNL     1      57.360  55.736  71.673  0.00  0.00    +0.000 C 
BRANCH  27  28
ATOM     28  C8  UNL     1      57.661  57.209  71.375  0.00  0.00    +0.000 C 
BRANCH  28  35
ATOM     29  C2  UNL     1      59.470  54.295  68.306  0.00  0.00    +0.000 A 
ATOM     30  C3  UNL     1      60.123  54.968  67.235  0.00  0.00    +0.000 A 
ATOM     31  C4  UNL     1      60.135  56.374  67.171  0.00  0.00    +0.000 A 
ATOM     32  C5  UNL     1      59.486  57.078  68.182  0.00  0.00    +0.000 A 
ATOM     33  N1  UNL     1      59.428  58.413  68.334  0.00  0.00    +0.000 N 
ATOM     34  C6  UNL     1      58.746  58.629  69.481  0.00  0.00    +0.000 A 
ATOM     35  C7  UNL     1      58.342  57.419  70.046  0.00  0.00    +0.000 A 
ATOM     36  C30 UNL     1      58.845  56.438  69.210  0.00  0.00    +0.000 A 
ATOM     37  C31 UNL     1      58.819  55.046  69.304  0.00  0.00    +0.000 A 
ATOM     38  H6  UNL     1      59.856  59.138  67.716  0.00  0.00    +0.000 HD
BRANCH  29  40
ATOM     39  C1  UNL     1      60.163  52.158  69.402  0.00  0.00    +0.000 C 
ATOM     40  O1  UNL     1      59.454  52.897  68.412  0.00  0.00    +0.000 OA
ENDBRANCH  29  40
ENDBRANCH  28  35
ENDBRANCH  27  28
ENDBRANCH  23  27
ENDBRANCH   1  24
BRANCH   5  41
ATOM     41  N3  UNL     1      59.386  53.091  80.293  0.00  0.00    +0.000 N 
ATOM     42  O3  UNL     1      58.234  53.514  80.519  0.00  0.00    +0.000 OA
ATOM     43  O4  UNL     1      60.111  52.555  81.333  0.00  0.00    +0.000 OA
ENDBRANCH   5  41
TORSDOF 6
ENDMDL
MODEL 7
REMARK VINA RESULT:    -8.199      2.892      9.346
REMARK INTER + INTRA:         -12.239
REMARK INTER:                 -10.773
REMARK INTRA:                  -1.466
REMARK UNBOUND:                -1.164
REMARK  Name = CNP0591400_1.pdb
REMARK  7 active torsions:
REMARK  status: ('A' for Active; 'I' for Inactive)
REMARK    1  A    between atoms: C1_1  and  O1_2
REMARK    2  A    between atoms: O1_2  and  C2_3
REMARK    3  A    between atoms: C7_9  and  C8_10
REMARK    4  A    between atoms: C8_10  and  C9_11
REMARK    5  A    between atoms: C9_11  and  N2_12
REMARK    6  A    between atoms: C10_13  and  C11_15
REMARK    7  A    between atoms: C15_19  and  N3_20
REMARK                            x       y       z     vdW  Elec       q    Type
REMARK                         _______ _______ _______ _____ _____    ______ ____
ROOT
ATOM      1  C11 UNL     1      57.907  53.935  70.109  0.00  0.00    +0.000 C 
ATOM      2  C12 UNL     1      58.313  53.363  68.748  0.00  0.00    +0.000 C 
ATOM      3  C13 UNL     1      58.221  54.393  67.663  0.00  0.00    +0.000 A 
ATOM      4  C14 UNL     1      58.081  53.957  66.335  0.00  0.00    +0.000 A 
ATOM      5  C15 UNL     1      58.072  54.872  65.272  0.00  0.00    +0.000 A 
ATOM      6  C16 UNL     1      58.209  56.236  65.556  0.00  0.00    +0.000 A 
ATOM      7  C17 UNL     1      58.360  56.678  66.870  0.00  0.00    +0.000 A 
ATOM      8  C18 UNL     1      58.385  55.766  67.951  0.00  0.00    +0.000 A 
ATOM      9  N4  UNL     1      58.575  56.217  69.327  0.00  0.00    +0.000 N 
ATOM     10  C19 UNL     1      58.832  57.657  69.571  0.00  0.00    +0.000 C 
ATOM     11  C20 UNL     1      58.905  58.032  71.059  0.00  0.00    +0.000 C 
ATOM     12  C21 UNL     1      57.856  57.223  71.802  0.00  0.00    +0.000 C 
ATOM     13  C22 UNL     1      58.346  55.781  71.845  0.00  0.00    +0.000 C 
ATOM     14  C23 UNL     1      59.563  55.734  72.786  0.00  0.00    +0.000 C 
ATOM     15  N5  UNL     1      60.613  56.695  72.382  0.00  0.00    +0.000 N 
ATOM     16  C24 UNL     1      60.303  57.809  71.625  0.00  0.00    +0.000 A 
ATOM     17  C25 UNL     1      61.305  58.738  71.302  0.00  0.00    +0.000 A 
ATOM     18  C26 UNL     1      62.604  58.540  71.752  0.00  0.00    +0.000 A 
ATOM     19  C27 UNL     1      62.903  57.424  72.525  0.00  0.00    +0.000 A 
ATOM     20  C28 UNL     1      61.894  56.512  72.846  0.00  0.00    +0.000 A 
ATOM     21  O5  UNL     1      62.181  55.519  73.570  0.00  0.00    +0.000 OA
ATOM     22  C29 UNL     1      58.723  55.215  70.420  0.00  0.00    +0.000 C 
ENDROOT
BRANCH   1  24
ATOM     23  N2  UNL     1      59.436  52.423  71.494  0.00  0.00    +0.000 N 
ATOM     24  C10 UNL     1      58.112  52.871  71.167  0.00  0.00    +0.000 C 
ATOM     25  O2  UNL     1      57.113  52.377  71.755  0.00  0.00    +0.000 OA
ATOM     26  H12 UNL     1      60.249  52.813  70.968  0.00  0.00    +0.000 HD
BRANCH  23  27
ATOM     27  C9  UNL     1      59.708  51.454  72.557  0.00  0.00    +0.000 C 
BRANCH  27  28
ATOM     28  C8  UNL     1      59.957  52.170  73.889  0.00  0.00    +0.000 C 
BRANCH  28  35
ATOM     29  C2  UNL     1      62.068  53.233  77.839  0.00  0.00    +0.000 A 
ATOM     30  C3  UNL     1      63.485  53.177  77.731  0.00  0.00    +0.000 A 
ATOM     31  C4  UNL     1      64.099  52.790  76.525  0.00  0.00    +0.000 A 
ATOM     32  C5  UNL     1      63.277  52.461  75.451  0.00  0.00    +0.000 A 
ATOM     33  N1  UNL     1      63.661  52.122  74.207  0.00  0.00    +0.000 N 
ATOM     34  C6  UNL     1      62.522  51.949  73.499  0.00  0.00    +0.000 A 
ATOM     35  C7  UNL     1      61.405  52.153  74.310  0.00  0.00    +0.000 A 
ATOM     36  C30 UNL     1      61.910  52.501  75.550  0.00  0.00    +0.000 A 
ATOM     37  C31 UNL     1      61.272  52.885  76.730  0.00  0.00    +0.000 A 
ATOM     38  H6  UNL     1      64.638  52.044  73.847  0.00  0.00    +0.000 HD
BRANCH  29  40
ATOM     39  C1  UNL     1      60.034  53.938  79.111  0.00  0.00    +0.000 C 
ATOM     40  O1  UNL     1      61.422  53.633  79.017  0.00  0.00    +0.000 OA
ENDBRANCH  29  40
ENDBRANCH  28  35
ENDBRANCH  27  28
ENDBRANCH  23  27
ENDBRANCH   1  24
BRANCH   5  41
ATOM     41  N3  UNL     1      57.954  54.419  63.911  0.00  0.00    +0.000 N 
ATOM     42  O3  UNL     1      57.926  53.199  63.646  0.00  0.00    +0.000 OA
ATOM     43  O4  UNL     1      57.923  55.323  62.874  0.00  0.00    +0.000 OA
ENDBRANCH   5  41
TORSDOF 6
ENDMDL
MODEL 8
REMARK VINA RESULT:    -8.006      2.286      5.772
REMARK INTER + INTRA:         -11.977
REMARK INTER:                 -10.778
REMARK INTRA:                  -1.199
REMARK UNBOUND:                -1.164
REMARK  Name = CNP0591400_1.pdb
REMARK  7 active torsions:
REMARK  status: ('A' for Active; 'I' for Inactive)
REMARK    1  A    between atoms: C1_1  and  O1_2
REMARK    2  A    between atoms: O1_2  and  C2_3
REMARK    3  A    between atoms: C7_9  and  C8_10
REMARK    4  A    between atoms: C8_10  and  C9_11
REMARK    5  A    between atoms: C9_11  and  N2_12
REMARK    6  A    between atoms: C10_13  and  C11_15
REMARK    7  A    between atoms: C15_19  and  N3_20
REMARK                            x       y       z     vdW  Elec       q    Type
REMARK                         _______ _______ _______ _____ _____    ______ ____
ROOT
ATOM      1  C11 UNL     1      59.641  53.929  75.493  0.00  0.00    +0.000 C 
ATOM      2  C12 UNL     1      59.861  53.311  76.877  0.00  0.00    +0.000 C 
ATOM      3  C13 UNL     1      58.955  53.917  77.906  0.00  0.00    +0.000 A 
ATOM      4  C14 UNL     1      59.330  53.840  79.258  0.00  0.00    +0.000 A 
ATOM      5  C15 UNL     1      58.485  54.316  80.270  0.00  0.00    +0.000 A 
ATOM      6  C16 UNL     1      57.251  54.873  79.911  0.00  0.00    +0.000 A 
ATOM      7  C17 UNL     1      56.864  54.944  78.573  0.00  0.00    +0.000 A 
ATOM      8  C18 UNL     1      57.701  54.454  77.542  0.00  0.00    +0.000 A 
ATOM      9  N4  UNL     1      57.290  54.495  76.141  0.00  0.00    +0.000 N 
ATOM     10  C19 UNL     1      55.930  54.985  75.816  0.00  0.00    +0.000 C 
ATOM     11  C20 UNL     1      55.649  55.088  74.308  0.00  0.00    +0.000 C 
ATOM     12  C21 UNL     1      56.912  55.586  73.627  0.00  0.00    +0.000 C 
ATOM     13  C22 UNL     1      57.919  54.444  73.655  0.00  0.00    +0.000 C 
ATOM     14  C23 UNL     1      57.406  53.352  72.698  0.00  0.00    +0.000 C 
ATOM     15  N5  UNL     1      56.030  52.925  73.034  0.00  0.00    +0.000 N 
ATOM     16  C24 UNL     1      55.178  53.757  73.734  0.00  0.00    +0.000 A 
ATOM     17  C25 UNL     1      53.858  53.355  73.990  0.00  0.00    +0.000 A 
ATOM     18  C26 UNL     1      53.408  52.123  73.532  0.00  0.00    +0.000 A 
ATOM     19  C27 UNL     1      54.267  51.299  72.815  0.00  0.00    +0.000 A 
ATOM     20  C28 UNL     1      55.577  51.716  72.560  0.00  0.00    +0.000 A 
ATOM     21  O5  UNL     1      56.333  50.964  71.886  0.00  0.00    +0.000 OA
ATOM     22  C29 UNL     1      58.145  53.854  75.102  0.00  0.00    +0.000 C 
ENDROOT
BRANCH   1  24
ATOM     23  N2  UNL     1      61.555  53.917  73.796  0.00  0.00    +0.000 N 
ATOM     24  C10 UNL     1      60.518  53.208  74.492  0.00  0.00    +0.000 C 
ATOM     25  O2  UNL     1      60.329  51.982  74.268  0.00  0.00    +0.000 OA
ATOM     26  H12 UNL     1      61.670  54.942  73.963  0.00  0.00    +0.000 HD
BRANCH  23  27
ATOM     27  C9  UNL     1      62.484  53.265  72.873  0.00  0.00    +0.000 C 
BRANCH  27  28
ATOM     28  C8  UNL     1      62.729  54.144  71.642  0.00  0.00    +0.000 C 
BRANCH  28  35
ATOM     29  C2  UNL     1      60.356  57.860  70.321  0.00  0.00    +0.000 A 
ATOM     30  C3  UNL     1      60.925  59.070  70.808  0.00  0.00    +0.000 A 
ATOM     31  C4  UNL     1      62.066  59.048  71.631  0.00  0.00    +0.000 A 
ATOM     32  C5  UNL     1      62.611  57.809  71.956  0.00  0.00    +0.000 A 
ATOM     33  N1  UNL     1      63.721  57.573  72.678  0.00  0.00    +0.000 N 
ATOM     34  C6  UNL     1      63.888  56.231  72.679  0.00  0.00    +0.000 A 
ATOM     35  C7  UNL     1      62.857  55.609  71.974  0.00  0.00    +0.000 A 
ATOM     36  C30 UNL     1      62.063  56.637  71.501  0.00  0.00    +0.000 A 
ATOM     37  C31 UNL     1      60.935  56.627  70.679  0.00  0.00    +0.000 A 
ATOM     38  H6  UNL     1      64.350  58.281  73.118  0.00  0.00    +0.000 HD
BRANCH  29  40
ATOM     39  C1  UNL     1      59.283  57.986  68.067  0.00  0.00    +0.000 C 
ATOM     40  O1  UNL     1      59.232  57.845  69.483  0.00  0.00    +0.000 OA
ENDBRANCH  29  40
ENDBRANCH  28  35
ENDBRANCH  27  28
ENDBRANCH  23  27
ENDBRANCH   1  24
BRANCH   5  41
ATOM     41  N3  UNL     1      58.861  54.212  81.655  0.00  0.00    +0.000 N 
ATOM     42  O3  UNL     1      59.447  53.195  82.080  0.00  0.00    +0.000 OA
ATOM     43  O4  UNL     1      58.536  55.209  82.545  0.00  0.00    +0.000 OA
ENDBRANCH   5  41
TORSDOF 6
ENDMDL
MODEL 9
REMARK VINA RESULT:    -7.944      3.309      9.364
REMARK INTER + INTRA:         -11.895
REMARK INTER:                 -10.909
REMARK INTRA:                  -0.986
REMARK UNBOUND:                -1.164
REMARK  Name = CNP0591400_1.pdb
REMARK  7 active torsions:
REMARK  status: ('A' for Active; 'I' for Inactive)
REMARK    1  A    between atoms: C1_1  and  O1_2
REMARK    2  A    between atoms: O1_2  and  C2_3
REMARK    3  A    between atoms: C7_9  and  C8_10
REMARK    4  A    between atoms: C8_10  and  C9_11
REMARK    5  A    between atoms: C9_11  and  N2_12
REMARK    6  A    between atoms: C10_13  and  C11_15
REMARK    7  A    between atoms: C15_19  and  N3_20
REMARK                            x       y       z     vdW  Elec       q    Type
REMARK                         _______ _______ _______ _____ _____    ______ ____
ROOT
ATOM      1  C11 UNL     1      57.211  54.254  69.733  0.00  0.00    +0.000 C 
ATOM      2  C12 UNL     1      57.613  53.474  68.478  0.00  0.00    +0.000 C 
ATOM      3  C13 UNL     1      57.844  54.383  67.309  0.00  0.00    +0.000 A 
ATOM      4  C14 UNL     1      57.741  53.848  66.014  0.00  0.00    +0.000 A 
ATOM      5  C15 UNL     1      58.026  54.630  64.885  0.00  0.00    +0.000 A 
ATOM      6  C16 UNL     1      58.420  55.961  65.069  0.00  0.00    +0.000 A 
ATOM      7  C17 UNL     1      58.537  56.498  66.351  0.00  0.00    +0.000 A 
ATOM      8  C18 UNL     1      58.266  55.717  67.499  0.00  0.00    +0.000 A 
ATOM      9  N4  UNL     1      58.417  56.262  68.847  0.00  0.00    +0.000 N 
ATOM     10  C19 UNL     1      58.948  57.637  68.999  0.00  0.00    +0.000 C 
ATOM     11  C20 UNL     1      58.958  58.143  70.450  0.00  0.00    +0.000 C 
ATOM     12  C21 UNL     1      57.696  57.643  71.132  0.00  0.00    +0.000 C 
ATOM     13  C22 UNL     1      57.864  56.145  71.349  0.00  0.00    +0.000 C 
ATOM     14  C23 UNL     1      58.949  55.952  72.424  0.00  0.00    +0.000 C 
ATOM     15  N5  UNL     1      60.212  56.635  72.064  0.00  0.00    +0.000 N 
ATOM     16  C24 UNL     1      60.217  57.703  71.188  0.00  0.00    +0.000 A 
ATOM     17  C25 UNL     1      61.418  58.373  70.906  0.00  0.00    +0.000 A 
ATOM     18  C26 UNL     1      62.597  57.965  71.516  0.00  0.00    +0.000 A 
ATOM     19  C27 UNL     1      62.580  56.899  72.407  0.00  0.00    +0.000 A 
ATOM     20  C28 UNL     1      61.375  56.247  72.685  0.00  0.00    +0.000 A 
ATOM     21  O5  UNL     1      61.377  55.297  73.516  0.00  0.00    +0.000 OA
ATOM     22  C29 UNL     1      58.246  55.369  70.028  0.00  0.00    +0.000 C 
ENDROOT
BRANCH   1  24
ATOM     23  N2  UNL     1      56.034  53.446  71.854  0.00  0.00    +0.000 N 
ATOM     24  C10 UNL     1      57.086  53.287  70.890  0.00  0.00    +0.000 C 
ATOM     25  O2  UNL     1      57.915  52.345  71.006  0.00  0.00    +0.000 OA
ATOM     26  H12 UNL     1      55.382  54.257  71.766  0.00  0.00    +0.000 HD
BRANCH  23  27
ATOM     27  C9  UNL     1      55.812  52.504  72.952  0.00  0.00    +0.000 C 
BRANCH  27  28
ATOM     28  C8  UNL     1      56.597  52.930  74.197  0.00  0.00    +0.000 C 
BRANCH  28  35
ATOM     29  C2  UNL     1      57.368  54.610  78.413  0.00  0.00    +0.000 A 
ATOM     30  C3  UNL     1      56.323  55.468  78.856  0.00  0.00    +0.000 A 
ATOM     31  C4  UNL     1      55.227  55.756  78.022  0.00  0.00    +0.000 A 
ATOM     32  C5  UNL     1      55.203  55.180  76.754  0.00  0.00    +0.000 A 
ATOM     33  N1  UNL     1      54.229  55.283  75.833  0.00  0.00    +0.000 N 
ATOM     34  C6  UNL     1      54.616  54.513  74.792  0.00  0.00    +0.000 A 
ATOM     35  C7  UNL     1      55.863  53.939  75.044  0.00  0.00    +0.000 A 
ATOM     36  C30 UNL     1      56.211  54.361  76.315  0.00  0.00    +0.000 A 
ATOM     37  C31 UNL     1      57.308  54.053  77.120  0.00  0.00    +0.000 A 
ATOM     38  H6  UNL     1      53.335  55.816  75.916  0.00  0.00    +0.000 HD
BRANCH  29  40
ATOM     39  C1  UNL     1      58.764  52.971  79.684  0.00  0.00    +0.000 C 
ATOM     40  O1  UNL     1      58.465  54.285  79.223  0.00  0.00    +0.000 OA
ENDBRANCH  29  40
ENDBRANCH  28  35
ENDBRANCH  27  28
ENDBRANCH  23  27
ENDBRANCH   1  24
BRANCH   5  41
ATOM     41  N3  UNL     1      57.944  54.071  63.561  0.00  0.00    +0.000 N 
ATOM     42  O3  UNL     1      57.876  52.836  63.395  0.00  0.00    +0.000 OA
ATOM     43  O4  UNL     1      57.992  54.887  62.454  0.00  0.00    +0.000 OA
ENDBRANCH   5  41
TORSDOF 6
ENDMDL
MODEL 10
REMARK VINA RESULT:    -7.388      2.484      3.145
REMARK INTER + INTRA:         -11.143
REMARK INTER:                  -9.419
REMARK INTRA:                  -1.724
REMARK UNBOUND:                -1.164
REMARK  Name = CNP0591400_1.pdb
REMARK  7 active torsions:
REMARK  status: ('A' for Active; 'I' for Inactive)
REMARK    1  A    between atoms: C1_1  and  O1_2
REMARK    2  A    between atoms: O1_2  and  C2_3
REMARK    3  A    between atoms: C7_9  and  C8_10
REMARK    4  A    between atoms: C8_10  and  C9_11
REMARK    5  A    between atoms: C9_11  and  N2_12
REMARK    6  A    between atoms: C10_13  and  C11_15
REMARK    7  A    between atoms: C15_19  and  N3_20
REMARK                            x       y       z     vdW  Elec       q    Type
REMARK                         _______ _______ _______ _____ _____    ______ ____
ROOT
ATOM      1  C11 UNL     1      59.365  53.167  73.622  0.00  0.00    +0.000 C 
ATOM      2  C12 UNL     1      59.194  53.265  75.141  0.00  0.00    +0.000 C 
ATOM      3  C13 UNL     1      60.508  53.166  75.854  0.00  0.00    +0.000 A 
ATOM      4  C14 UNL     1      60.511  52.757  77.198  0.00  0.00    +0.000 A 
ATOM      5  C15 UNL     1      61.701  52.725  77.941  0.00  0.00    +0.000 A 
ATOM      6  C16 UNL     1      62.894  53.111  77.318  0.00  0.00    +0.000 A 
ATOM      7  C17 UNL     1      62.900  53.529  75.987  0.00  0.00    +0.000 A 
ATOM      8  C18 UNL     1      61.706  53.580  75.231  0.00  0.00    +0.000 A 
ATOM      9  N4  UNL     1      61.697  54.048  73.847  0.00  0.00    +0.000 N 
ATOM     10  C19 UNL     1      62.962  54.556  73.264  0.00  0.00    +0.000 C 
ATOM     11  C20 UNL     1      62.859  54.915  71.773  0.00  0.00    +0.000 C 
ATOM     12  C21 UNL     1      61.973  53.881  71.100  0.00  0.00    +0.000 C 
ATOM     13  C22 UNL     1      60.545  54.145  71.557  0.00  0.00    +0.000 C 
ATOM     14  C23 UNL     1      60.092  55.472  70.919  0.00  0.00    +0.000 C 
ATOM     15  N5  UNL     1      61.020  56.581  71.233  0.00  0.00    +0.000 N 
ATOM     16  C24 UNL     1      62.335  56.332  71.573  0.00  0.00    +0.000 A 
ATOM     17  C25 UNL     1      63.213  57.403  71.809  0.00  0.00    +0.000 A 
ATOM     18  C26 UNL     1      62.758  58.710  71.691  0.00  0.00    +0.000 A 
ATOM     19  C27 UNL     1      61.436  58.950  71.334  0.00  0.00    +0.000 A 
ATOM     20  C28 UNL     1      60.576  57.875  71.094  0.00  0.00    +0.000 A 
ATOM     21  O5  UNL     1      59.387  58.115  70.747  0.00  0.00    +0.000 OA
ATOM     22  C29 UNL     1      60.401  54.207  73.128  0.00  0.00    +0.000 C 
ENDROOT
BRANCH   1  24
ATOM     23  N2  UNL     1      57.484  52.365  72.084  0.00  0.00    +0.000 N 
ATOM     24  C10 UNL     1      58.016  53.367  72.965  0.00  0.00    +0.000 C 
ATOM     25  O2  UNL     1      57.363  54.422  73.191  0.00  0.00    +0.000 OA
ATOM     26  H12 UNL     1      58.057  51.517  71.875  0.00  0.00    +0.000 HD
BRANCH  23  27
ATOM     27  C9  UNL     1      56.156  52.462  71.477  0.00  0.00    +0.000 C 
BRANCH  27  28
ATOM     28  C8  UNL     1      56.268  52.721  69.971  0.00  0.00    +0.000 C 
BRANCH  28  35
ATOM     29  C2  UNL     1      59.090  55.031  67.163  0.00  0.00    +0.000 A 
ATOM     30  C3  UNL     1      60.246  54.279  66.813  0.00  0.00    +0.000 A 
ATOM     31  C4  UNL     1      60.453  52.991  67.343  0.00  0.00    +0.000 A 
ATOM     32  C5  UNL     1      59.496  52.485  68.219  0.00  0.00    +0.000 A 
ATOM     33  N1  UNL     1      59.478  51.266  68.787  0.00  0.00    +0.000 N 
ATOM     34  C6  UNL     1      58.335  51.206  69.506  0.00  0.00    +0.000 A 
ATOM     35  C7  UNL     1      57.635  52.410  69.416  0.00  0.00    +0.000 A 
ATOM     36  C30 UNL     1      58.385  53.207  68.570  0.00  0.00    +0.000 A 
ATOM     37  C31 UNL     1      58.150  54.484  68.058  0.00  0.00    +0.000 A 
ATOM     38  H6  UNL     1      60.181  50.503  68.668  0.00  0.00    +0.000 HD
BRANCH  29  40
ATOM     39  C1  UNL     1      59.135  57.525  67.318  0.00  0.00    +0.000 C 
ATOM     40  O1  UNL     1      58.842  56.308  66.640  0.00  0.00    +0.000 OA
ENDBRANCH  29  40
ENDBRANCH  28  35
ENDBRANCH  27  28
ENDBRANCH  23  27
ENDBRANCH   1  24
BRANCH   5  41
ATOM     41  N3  UNL     1      61.696  52.330  79.324  0.00  0.00    +0.000 N 
ATOM     42  O3  UNL     1      60.878  51.485  79.743  0.00  0.00    +0.000 OA
ATOM     43  O4  UNL     1      62.559  52.917  80.222  0.00  0.00    +0.000 OA
ENDBRANCH   5  41
TORSDOF 6
ENDMDL
