MODEL 1
REMARK VINA RESULT:    -8.829      0.000      0.000
REMARK INTER + INTRA:         -13.537
REMARK INTER:                 -12.443
REMARK INTRA:                  -1.095
REMARK UNBOUND:                -1.095
REMARK  Name = CNP0120079_2.pdb
REMARK  10 active torsions:
REMARK  status: ('A' for Active; 'I' for Inactive)
REMARK    1  A    between atoms: C1_1  and  C2_2
REMARK    2  A    between atoms: C5_5  and  S1_6
REMARK    3  A    between atoms: S1_6  and  N1_9
REMARK    4  A    between atoms: N1_9  and  C6_10
REMARK    5  A    between atoms: C6_10  and  C7_11
REMARK    6  A    between atoms: C6_10  and  C19_27
REMARK    7  A    between atoms: C7_11  and  O4_13
REMARK    8  A    between atoms: O4_13  and  C8_14
REMARK    9  A    between atoms: C12_18  and  C13_19
REMARK   10  A    between atoms: C17_25  and  C18_26
REMARK                            x       y       z     vdW  Elec       q    Type
REMARK                         _______ _______ _______ _____ _____    ______ ____
ROOT
ATOM      1  C6  UNL     1      63.348  54.206  73.962  0.00  0.00    +0.000 C 
ENDROOT
BRANCH   1   2
ATOM      2  C19 UNL     1      63.488  53.264  72.777  0.00  0.00    +0.000 A 
ATOM      3  C20 UNL     1      62.874  53.549  71.541  0.00  0.00    +0.000 A 
ATOM      4  C21 UNL     1      62.998  52.661  70.469  0.00  0.00    +0.000 A 
ATOM      5  C22 UNL     1      63.747  51.489  70.612  0.00  0.00    +0.000 A 
ATOM      6  C23 UNL     1      64.391  51.215  71.820  0.00  0.00    +0.000 A 
ATOM      7  C24 UNL     1      64.273  52.101  72.894  0.00  0.00    +0.000 A 
ENDBRANCH   1   2
BRANCH   1   8
ATOM      8  N1  UNL     1      62.189  53.880  74.818  0.00  0.00    +0.000 NA
ATOM      9  H6  UNL     1      61.421  53.433  74.270  0.00  0.00    +0.000 HD
BRANCH   8  10
ATOM     10  S1  UNL     1      62.621  52.813  76.123  0.00  0.00    +0.000 S 
ATOM     11  O1  UNL     1      64.097  52.920  76.377  0.00  0.00    +0.000 OA
ATOM     12  O2  UNL     1      62.308  51.394  75.730  0.00  0.00    +0.000 OA
BRANCH  10  17
ATOM     13  C1  UNL     1      59.750  54.475  81.212  0.00  0.00    +0.000 C 
ATOM     14  C2  UNL     1      60.434  53.990  79.968  0.00  0.00    +0.000 A 
ATOM     15  C3  UNL     1      59.743  53.956  78.746  0.00  0.00    +0.000 A 
ATOM     16  C4  UNL     1      60.401  53.564  77.574  0.00  0.00    +0.000 A 
ATOM     17  C5  UNL     1      61.764  53.231  77.606  0.00  0.00    +0.000 A 
ATOM     18  C25 UNL     1      62.454  53.262  78.826  0.00  0.00    +0.000 A 
ATOM     19  C26 UNL     1      61.796  53.644  80.001  0.00  0.00    +0.000 A 
ENDBRANCH  10  17
ENDBRANCH   8  10
ENDBRANCH   1   8
BRANCH   1  20
ATOM     20  C7  UNL     1      63.240  55.617  73.462  0.00  0.00    +0.000 C 
ATOM     21  O3  UNL     1      64.251  56.205  72.975  0.00  0.00    +0.000 OA
BRANCH  20  22
ATOM     22  O4  UNL     1      62.018  56.284  73.571  0.00  0.00    +0.000 OA
BRANCH  22  23
ATOM     23  C8  UNL     1      61.443  57.031  72.535  0.00  0.00    +0.000 A 
ATOM     24  C9  UNL     1      61.885  58.343  72.348  0.00  0.00    +0.000 A 
ATOM     25  C10 UNL     1      61.341  59.143  71.347  0.00  0.00    +0.000 A 
ATOM     26  C11 UNL     1      60.337  58.639  70.501  0.00  0.00    +0.000 A 
ATOM     27  C12 UNL     1      59.752  59.417  69.475  0.00  0.00    +0.000 A 
ATOM     28  C13 UNL     1      60.167  60.842  69.213  0.00  0.00    +0.000 C 
ATOM     29  C14 UNL     1      58.757  58.837  68.677  0.00  0.00    +0.000 A 
ATOM     30  C15 UNL     1      58.372  57.517  68.912  0.00  0.00    +0.000 A 
ATOM     31  O5  UNL     1      57.478  56.988  68.202  0.00  0.00    +0.000 OA
ATOM     32  O6  UNL     1      58.946  56.811  69.879  0.00  0.00    +0.000 OA
ATOM     33  C16 UNL     1      59.898  57.302  70.670  0.00  0.00    +0.000 A 
ATOM     34  C17 UNL     1      60.470  56.485  71.669  0.00  0.00    +0.000 A 
ATOM     35  C18 UNL     1      60.040  55.043  71.793  0.00  0.00    +0.000 C 
ENDBRANCH  22  23
ENDBRANCH  20  22
ENDBRANCH   1  20
TORSDOF 7
ENDMDL
MODEL 2
REMARK VINA RESULT:    -8.461      2.371      8.462
REMARK INTER + INTRA:         -13.018
REMARK INTER:                 -12.127
REMARK INTRA:                  -0.891
REMARK UNBOUND:                -1.095
REMARK  Name = CNP0120079_2.pdb
REMARK  10 active torsions:
REMARK  status: ('A' for Active; 'I' for Inactive)
REMARK    1  A    between atoms: C1_1  and  C2_2
REMARK    2  A    between atoms: C5_5  and  S1_6
REMARK    3  A    between atoms: S1_6  and  N1_9
REMARK    4  A    between atoms: N1_9  and  C6_10
REMARK    5  A    between atoms: C6_10  and  C7_11
REMARK    6  A    between atoms: C6_10  and  C19_27
REMARK    7  A    between atoms: C7_11  and  O4_13
REMARK    8  A    between atoms: O4_13  and  C8_14
REMARK    9  A    between atoms: C12_18  and  C13_19
REMARK   10  A    between atoms: C17_25  and  C18_26
REMARK                            x       y       z     vdW  Elec       q    Type
REMARK                         _______ _______ _______ _____ _____    ______ ____
ROOT
ATOM      1  C6  UNL     1      61.321  54.659  72.011  0.00  0.00    +0.000 C 
ENDROOT
BRANCH   1   2
ATOM      2  C19 UNL     1      62.510  55.451  72.532  0.00  0.00    +0.000 A 
ATOM      3  C20 UNL     1      62.394  56.820  72.848  0.00  0.00    +0.000 A 
ATOM      4  C21 UNL     1      63.504  57.535  73.307  0.00  0.00    +0.000 A 
ATOM      5  C22 UNL     1      64.734  56.893  73.470  0.00  0.00    +0.000 A 
ATOM      6  C23 UNL     1      64.852  55.529  73.196  0.00  0.00    +0.000 A 
ATOM      7  C24 UNL     1      63.745  54.807  72.741  0.00  0.00    +0.000 A 
ENDBRANCH   1   2
BRANCH   1   8
ATOM      8  N1  UNL     1      60.041  55.377  72.172  0.00  0.00    +0.000 NA
ATOM      9  H6  UNL     1      60.170  56.287  72.668  0.00  0.00    +0.000 HD
BRANCH   8  10
ATOM     10  S1  UNL     1      59.274  55.695  70.643  0.00  0.00    +0.000 S 
ATOM     11  O1  UNL     1      57.825  55.309  70.730  0.00  0.00    +0.000 OA
ATOM     12  O2  UNL     1      59.925  54.857  69.576  0.00  0.00    +0.000 OA
BRANCH  10  17
ATOM     13  C1  UNL     1      59.756  61.519  68.985  0.00  0.00    +0.000 C 
ATOM     14  C2  UNL     1      59.597  60.104  69.458  0.00  0.00    +0.000 A 
ATOM     15  C3  UNL     1      58.465  59.358  69.095  0.00  0.00    +0.000 A 
ATOM     16  C4  UNL     1      58.348  58.018  69.484  0.00  0.00    +0.000 A 
ATOM     17  C5  UNL     1      59.375  57.402  70.215  0.00  0.00    +0.000 A 
ATOM     18  C25 UNL     1      60.505  58.148  70.582  0.00  0.00    +0.000 A 
ATOM     19  C26 UNL     1      60.619  59.490  70.202  0.00  0.00    +0.000 A 
ENDBRANCH  10  17
ENDBRANCH   8  10
ENDBRANCH   1   8
BRANCH   1  20
ATOM     20  C7  UNL     1      61.264  53.334  72.715  0.00  0.00    +0.000 C 
ATOM     21  O3  UNL     1      60.573  52.385  72.242  0.00  0.00    +0.000 OA
BRANCH  20  22
ATOM     22  O4  UNL     1      61.957  53.175  73.918  0.00  0.00    +0.000 OA
BRANCH  22  23
ATOM     23  C8  UNL     1      61.374  53.338  75.180  0.00  0.00    +0.000 A 
ATOM     24  C9  UNL     1      59.995  53.553  75.243  0.00  0.00    +0.000 A 
ATOM     25  C10 UNL     1      59.357  53.740  76.467  0.00  0.00    +0.000 A 
ATOM     26  C11 UNL     1      60.094  53.711  77.664  0.00  0.00    +0.000 A 
ATOM     27  C12 UNL     1      59.490  53.902  78.928  0.00  0.00    +0.000 A 
ATOM     28  C13 UNL     1      58.010  54.146  79.082  0.00  0.00    +0.000 C 
ATOM     29  C14 UNL     1      60.298  53.858  80.072  0.00  0.00    +0.000 A 
ATOM     30  C15 UNL     1      61.667  53.627  79.937  0.00  0.00    +0.000 A 
ATOM     31  O5  UNL     1      62.401  53.588  80.958  0.00  0.00    +0.000 OA
ATOM     32  O6  UNL     1      62.202  53.445  78.735  0.00  0.00    +0.000 OA
ATOM     33  C16 UNL     1      61.490  53.473  77.611  0.00  0.00    +0.000 A 
ATOM     34  C17 UNL     1      62.129  53.257  76.371  0.00  0.00    +0.000 A 
ATOM     35  C18 UNL     1      63.604  52.937  76.335  0.00  0.00    +0.000 C 
ENDBRANCH  22  23
ENDBRANCH  20  22
ENDBRANCH   1  20
TORSDOF 7
ENDMDL
MODEL 3
REMARK VINA RESULT:    -8.457      2.405      8.396
REMARK INTER + INTRA:         -13.012
REMARK INTER:                 -10.683
REMARK INTRA:                  -2.329
REMARK UNBOUND:                -1.095
REMARK  Name = CNP0120079_2.pdb
REMARK  10 active torsions:
REMARK  status: ('A' for Active; 'I' for Inactive)
REMARK    1  A    between atoms: C1_1  and  C2_2
REMARK    2  A    between atoms: C5_5  and  S1_6
REMARK    3  A    between atoms: S1_6  and  N1_9
REMARK    4  A    between atoms: N1_9  and  C6_10
REMARK    5  A    between atoms: C6_10  and  C7_11
REMARK    6  A    between atoms: C6_10  and  C19_27
REMARK    7  A    between atoms: C7_11  and  O4_13
REMARK    8  A    between atoms: O4_13  and  C8_14
REMARK    9  A    between atoms: C12_18  and  C13_19
REMARK   10  A    between atoms: C17_25  and  C18_26
REMARK                            x       y       z     vdW  Elec       q    Type
REMARK                         _______ _______ _______ _____ _____    ______ ____
ROOT
ATOM      1  C6  UNL     1      62.591  54.573  72.477  0.00  0.00    +0.000 C 
ENDROOT
BRANCH   1   2
ATOM      2  C19 UNL     1      62.193  56.033  72.331  0.00  0.00    +0.000 A 
ATOM      3  C20 UNL     1      62.921  56.910  71.502  0.00  0.00    +0.000 A 
ATOM      4  C21 UNL     1      62.551  58.253  71.396  0.00  0.00    +0.000 A 
ATOM      5  C22 UNL     1      61.444  58.733  72.101  0.00  0.00    +0.000 A 
ATOM      6  C23 UNL     1      60.692  57.866  72.896  0.00  0.00    +0.000 A 
ATOM      7  C24 UNL     1      61.055  56.520  73.003  0.00  0.00    +0.000 A 
ENDBRANCH   1   2
BRANCH   1   8
ATOM      8  N1  UNL     1      61.471  53.646  72.221  0.00  0.00    +0.000 NA
ATOM      9  H6  UNL     1      60.621  53.910  72.767  0.00  0.00    +0.000 HD
BRANCH   8  10
ATOM     10  S1  UNL     1      61.042  53.589  70.536  0.00  0.00    +0.000 S 
ATOM     11  O1  UNL     1      60.177  52.386  70.289  0.00  0.00    +0.000 OA
ATOM     12  O2  UNL     1      62.291  53.454  69.708  0.00  0.00    +0.000 OA
BRANCH  10  17
ATOM     13  C1  UNL     1      58.059  58.668  69.052  0.00  0.00    +0.000 C 
ATOM     14  C2  UNL     1      58.759  57.378  69.359  0.00  0.00    +0.000 A 
ATOM     15  C3  UNL     1      59.982  57.072  68.741  0.00  0.00    +0.000 A 
ATOM     16  C4  UNL     1      60.666  55.896  69.075  0.00  0.00    +0.000 A 
ATOM     17  C5  UNL     1      60.150  55.031  70.051  0.00  0.00    +0.000 A 
ATOM     18  C25 UNL     1      58.927  55.334  70.666  0.00  0.00    +0.000 A 
ATOM     19  C26 UNL     1      58.236  56.504  70.327  0.00  0.00    +0.000 A 
ENDBRANCH  10  17
ENDBRANCH   8  10
ENDBRANCH   1   8
BRANCH   1  20
ATOM     20  C7  UNL     1      63.145  54.348  73.854  0.00  0.00    +0.000 C 
ATOM     21  O3  UNL     1      64.042  55.112  74.319  0.00  0.00    +0.000 OA
BRANCH  20  22
ATOM     22  O4  UNL     1      62.681  53.264  74.603  0.00  0.00    +0.000 OA
BRANCH  22  23
ATOM     23  C8  UNL     1      61.926  53.395  75.775  0.00  0.00    +0.000 A 
ATOM     24  C9  UNL     1      60.541  53.525  75.654  0.00  0.00    +0.000 A 
ATOM     25  C10 UNL     1      59.736  53.675  76.781  0.00  0.00    +0.000 A 
ATOM     26  C11 UNL     1      60.308  53.694  78.065  0.00  0.00    +0.000 A 
ATOM     27  C12 UNL     1      59.532  53.852  79.236  0.00  0.00    +0.000 A 
ATOM     28  C13 UNL     1      58.033  54.005  79.190  0.00  0.00    +0.000 C 
ATOM     29  C14 UNL     1      60.183  53.859  80.477  0.00  0.00    +0.000 A 
ATOM     30  C15 UNL     1      61.569  53.713  80.526  0.00  0.00    +0.000 A 
ATOM     31  O5  UNL     1      62.162  53.721  81.636  0.00  0.00    +0.000 OA
ATOM     32  O6  UNL     1      62.269  53.561  79.408  0.00  0.00    +0.000 OA
ATOM     33  C16 UNL     1      61.712  53.542  78.199  0.00  0.00    +0.000 A 
ATOM     34  C17 UNL     1      62.521  53.362  77.057  0.00  0.00    +0.000 A 
ATOM     35  C18 UNL     1      64.005  53.133  77.219  0.00  0.00    +0.000 C 
ENDBRANCH  22  23
ENDBRANCH  20  22
ENDBRANCH   1  20
TORSDOF 7
ENDMDL
MODEL 4
REMARK VINA RESULT:    -8.429      4.250      6.996
REMARK INTER + INTRA:         -12.972
REMARK INTER:                  -9.828
REMARK INTRA:                  -3.144
REMARK UNBOUND:                -1.095
REMARK  Name = CNP0120079_2.pdb
REMARK  10 active torsions:
REMARK  status: ('A' for Active; 'I' for Inactive)
REMARK    1  A    between atoms: C1_1  and  C2_2
REMARK    2  A    between atoms: C5_5  and  S1_6
REMARK    3  A    between atoms: S1_6  and  N1_9
REMARK    4  A    between atoms: N1_9  and  C6_10
REMARK    5  A    between atoms: C6_10  and  C7_11
REMARK    6  A    between atoms: C6_10  and  C19_27
REMARK    7  A    between atoms: C7_11  and  O4_13
REMARK    8  A    between atoms: O4_13  and  C8_14
REMARK    9  A    between atoms: C12_18  and  C13_19
REMARK   10  A    between atoms: C17_25  and  C18_26
REMARK                            x       y       z     vdW  Elec       q    Type
REMARK                         _______ _______ _______ _____ _____    ______ ____
ROOT
ATOM      1  C6  UNL     1      60.784  56.072  72.017  0.00  0.00    +0.000 C 
ENDROOT
BRANCH   1   2
ATOM      2  C19 UNL     1      62.222  56.320  72.443  0.00  0.00    +0.000 A 
ATOM      3  C20 UNL     1      62.752  57.625  72.501  0.00  0.00    +0.000 A 
ATOM      4  C21 UNL     1      64.083  57.830  72.875  0.00  0.00    +0.000 A 
ATOM      5  C22 UNL     1      64.893  56.742  73.211  0.00  0.00    +0.000 A 
ATOM      6  C23 UNL     1      64.369  55.449  73.193  0.00  0.00    +0.000 A 
ATOM      7  C24 UNL     1      63.038  55.237  72.823  0.00  0.00    +0.000 A 
ENDBRANCH   1   2
BRANCH   1   8
ATOM      8  N1  UNL     1      60.507  54.649  71.737  0.00  0.00    +0.000 NA
ATOM      9  H6  UNL     1      61.101  54.020  72.322  0.00  0.00    +0.000 HD
BRANCH   8  10
ATOM     10  S1  UNL     1      58.839  54.240  72.015  0.00  0.00    +0.000 S 
ATOM     11  O1  UNL     1      58.135  55.427  72.608  0.00  0.00    +0.000 OA
ATOM     12  O2  UNL     1      58.764  53.103  72.998  0.00  0.00    +0.000 OA
BRANCH  10  17
ATOM     13  C1  UNL     1      56.230  52.784  66.726  0.00  0.00    +0.000 C 
ATOM     14  C2  UNL     1      56.808  53.123  68.069  0.00  0.00    +0.000 A 
ATOM     15  C3  UNL     1      57.460  52.139  68.828  0.00  0.00    +0.000 A 
ATOM     16  C4  UNL     1      58.054  52.471  70.053  0.00  0.00    +0.000 A 
ATOM     17  C5  UNL     1      58.027  53.796  70.515  0.00  0.00    +0.000 A 
ATOM     18  C25 UNL     1      57.373  54.778  69.758  0.00  0.00    +0.000 A 
ATOM     19  C26 UNL     1      56.770  54.446  68.539  0.00  0.00    +0.000 A 
ENDBRANCH  10  17
ENDBRANCH   8  10
ENDBRANCH   1   8
BRANCH   1  20
ATOM     20  C7  UNL     1      60.476  56.908  70.808  0.00  0.00    +0.000 C 
ATOM     21  O3  UNL     1      59.547  57.768  70.842  0.00  0.00    +0.000 OA
BRANCH  20  22
ATOM     22  O4  UNL     1      61.206  56.699  69.636  0.00  0.00    +0.000 OA
BRANCH  22  23
ATOM     23  C8  UNL     1      60.765  55.897  68.577  0.00  0.00    +0.000 A 
ATOM     24  C9  UNL     1      61.095  54.540  68.598  0.00  0.00    +0.000 A 
ATOM     25  C10 UNL     1      60.701  53.693  67.565  0.00  0.00    +0.000 A 
ATOM     26  C11 UNL     1      59.957  54.192  66.481  0.00  0.00    +0.000 A 
ATOM     27  C12 UNL     1      59.541  53.371  65.408  0.00  0.00    +0.000 A 
ATOM     28  C13 UNL     1      59.861  51.899  65.353  0.00  0.00    +0.000 C 
ATOM     29  C14 UNL     1      58.802  53.949  64.367  0.00  0.00    +0.000 A 
ATOM     30  C15 UNL     1      58.497  55.310  64.415  0.00  0.00    +0.000 A 
ATOM     31  O5  UNL     1      57.836  55.838  63.484  0.00  0.00    +0.000 OA
ATOM     32  O6  UNL     1      58.898  56.052  65.441  0.00  0.00    +0.000 OA
ATOM     33  C16 UNL     1      59.600  55.564  66.462  0.00  0.00    +0.000 A 
ATOM     34  C17 UNL     1      59.977  56.414  67.523  0.00  0.00    +0.000 A 
ATOM     35  C18 UNL     1      59.532  57.856  67.522  0.00  0.00    +0.000 C 
ENDBRANCH  22  23
ENDBRANCH  20  22
ENDBRANCH   1  20
TORSDOF 7
ENDMDL
MODEL 5
REMARK VINA RESULT:    -8.428      4.205      6.910
REMARK INTER + INTRA:         -12.971
REMARK INTER:                  -9.604
REMARK INTRA:                  -3.367
REMARK UNBOUND:                -1.095
REMARK  Name = CNP0120079_2.pdb
REMARK  10 active torsions:
REMARK  status: ('A' for Active; 'I' for Inactive)
REMARK    1  A    between atoms: C1_1  and  C2_2
REMARK    2  A    between atoms: C5_5  and  S1_6
REMARK    3  A    between atoms: S1_6  and  N1_9
REMARK    4  A    between atoms: N1_9  and  C6_10
REMARK    5  A    between atoms: C6_10  and  C7_11
REMARK    6  A    between atoms: C6_10  and  C19_27
REMARK    7  A    between atoms: C7_11  and  O4_13
REMARK    8  A    between atoms: O4_13  and  C8_14
REMARK    9  A    between atoms: C12_18  and  C13_19
REMARK   10  A    between atoms: C17_25  and  C18_26
REMARK                            x       y       z     vdW  Elec       q    Type
REMARK                         _______ _______ _______ _____ _____    ______ ____
ROOT
ATOM      1  C6  UNL     1      60.734  55.972  72.186  0.00  0.00    +0.000 C 
ENDROOT
BRANCH   1   2
ATOM      2  C19 UNL     1      62.175  56.176  72.624  0.00  0.00    +0.000 A 
ATOM      3  C20 UNL     1      62.722  57.468  72.758  0.00  0.00    +0.000 A 
ATOM      4  C21 UNL     1      64.056  57.634  73.143  0.00  0.00    +0.000 A 
ATOM      5  C22 UNL     1      64.852  56.518  73.413  0.00  0.00    +0.000 A 
ATOM      6  C23 UNL     1      64.310  55.234  73.320  0.00  0.00    +0.000 A 
ATOM      7  C24 UNL     1      62.977  55.062  72.940  0.00  0.00    +0.000 A 
ENDBRANCH   1   2
BRANCH   1   8
ATOM      8  N1  UNL     1      60.393  54.550  71.983  0.00  0.00    +0.000 NA
ATOM      9  H6  UNL     1      60.864  53.938  72.687  0.00  0.00    +0.000 HD
BRANCH   8  10
ATOM     10  S1  UNL     1      58.679  54.269  72.076  0.00  0.00    +0.000 S 
ATOM     11  O1  UNL     1      58.004  55.513  72.578  0.00  0.00    +0.000 OA
ATOM     12  O2  UNL     1      58.409  53.155  73.052  0.00  0.00    +0.000 OA
BRANCH  10  17
ATOM     13  C1  UNL     1      56.183  52.769  66.745  0.00  0.00    +0.000 C 
ATOM     14  C2  UNL     1      56.862  53.168  68.022  0.00  0.00    +0.000 A 
ATOM     15  C3  UNL     1      56.678  54.455  68.550  0.00  0.00    +0.000 A 
ATOM     16  C4  UNL     1      57.261  54.806  69.774  0.00  0.00    +0.000 A 
ATOM     17  C5  UNL     1      58.007  53.863  70.497  0.00  0.00    +0.000 A 
ATOM     18  C25 UNL     1      58.194  52.577  69.969  0.00  0.00    +0.000 A 
ATOM     19  C26 UNL     1      57.621  52.229  68.740  0.00  0.00    +0.000 A 
ENDBRANCH  10  17
ENDBRANCH   8  10
ENDBRANCH   1   8
BRANCH   1  20
ATOM     20  C7  UNL     1      60.487  56.749  70.925  0.00  0.00    +0.000 C 
ATOM     21  O3  UNL     1      59.596  57.648  70.888  0.00  0.00    +0.000 OA
BRANCH  20  22
ATOM     22  O4  UNL     1      61.231  56.442  69.783  0.00  0.00    +0.000 OA
BRANCH  22  23
ATOM     23  C8  UNL     1      60.667  55.977  68.589  0.00  0.00    +0.000 A 
ATOM     24  C9  UNL     1      59.955  56.884  67.802  0.00  0.00    +0.000 A 
ATOM     25  C10 UNL     1      59.355  56.480  66.611  0.00  0.00    +0.000 A 
ATOM     26  C11 UNL     1      59.463  55.147  66.178  0.00  0.00    +0.000 A 
ATOM     27  C12 UNL     1      58.866  54.690  64.981  0.00  0.00    +0.000 A 
ATOM     28  C13 UNL     1      58.075  55.603  64.080  0.00  0.00    +0.000 C 
ATOM     29  C14 UNL     1      59.022  53.344  64.623  0.00  0.00    +0.000 A 
ATOM     30  C15 UNL     1      59.758  52.495  65.450  0.00  0.00    +0.000 A 
ATOM     31  O5  UNL     1      59.902  51.285  65.138  0.00  0.00    +0.000 OA
ATOM     32  O6  UNL     1      60.311  52.957  66.566  0.00  0.00    +0.000 OA
ATOM     33  C16 UNL     1      60.202  54.224  66.960  0.00  0.00    +0.000 A 
ATOM     34  C17 UNL     1      60.831  54.643  68.152  0.00  0.00    +0.000 A 
ATOM     35  C18 UNL     1      61.671  53.666  68.939  0.00  0.00    +0.000 C 
ENDBRANCH  22  23
ENDBRANCH  20  22
ENDBRANCH   1  20
TORSDOF 7
ENDMDL
MODEL 6
REMARK VINA RESULT:    -8.402      2.665      5.547
REMARK INTER + INTRA:         -12.935
REMARK INTER:                  -9.444
REMARK INTRA:                  -3.492
REMARK UNBOUND:                -1.095
REMARK  Name = CNP0120079_2.pdb
REMARK  10 active torsions:
REMARK  status: ('A' for Active; 'I' for Inactive)
REMARK    1  A    between atoms: C1_1  and  C2_2
REMARK    2  A    between atoms: C5_5  and  S1_6
REMARK    3  A    between atoms: S1_6  and  N1_9
REMARK    4  A    between atoms: N1_9  and  C6_10
REMARK    5  A    between atoms: C6_10  and  C7_11
REMARK    6  A    between atoms: C6_10  and  C19_27
REMARK    7  A    between atoms: C7_11  and  O4_13
REMARK    8  A    between atoms: O4_13  and  C8_14
REMARK    9  A    between atoms: C12_18  and  C13_19
REMARK   10  A    between atoms: C17_25  and  C18_26
REMARK                            x       y       z     vdW  Elec       q    Type
REMARK                         _______ _______ _______ _____ _____    ______ ____
ROOT
ATOM      1  C6  UNL     1      63.005  53.346  73.772  0.00  0.00    +0.000 C 
ENDROOT
BRANCH   1   2
ATOM      2  C19 UNL     1      63.655  52.730  75.000  0.00  0.00    +0.000 A 
ATOM      3  C20 UNL     1      64.299  51.478  74.935  0.00  0.00    +0.000 A 
ATOM      4  C21 UNL     1      64.873  50.919  76.080  0.00  0.00    +0.000 A 
ATOM      5  C22 UNL     1      64.826  51.607  77.296  0.00  0.00    +0.000 A 
ATOM      6  C23 UNL     1      64.224  52.864  77.364  0.00  0.00    +0.000 A 
ATOM      7  C24 UNL     1      63.651  53.430  76.222  0.00  0.00    +0.000 A 
ENDBRANCH   1   2
BRANCH   1   8
ATOM      8  N1  UNL     1      63.190  52.529  72.556  0.00  0.00    +0.000 NA
ATOM      9  H6  UNL     1      63.852  51.738  72.722  0.00  0.00    +0.000 HD
BRANCH   8  10
ATOM     10  S1  UNL     1      61.687  51.871  71.976  0.00  0.00    +0.000 S 
ATOM     11  O1  UNL     1      60.736  51.730  73.130  0.00  0.00    +0.000 OA
ATOM     12  O2  UNL     1      61.934  50.505  71.394  0.00  0.00    +0.000 OA
BRANCH  10  17
ATOM     13  C1  UNL     1      59.237  55.343  67.636  0.00  0.00    +0.000 C 
ATOM     14  C2  UNL     1      59.816  54.538  68.761  0.00  0.00    +0.000 A 
ATOM     15  C3  UNL     1      59.039  53.565  69.410  0.00  0.00    +0.000 A 
ATOM     16  C4  UNL     1      59.600  52.771  70.417  0.00  0.00    +0.000 A 
ATOM     17  C5  UNL     1      60.951  52.919  70.765  0.00  0.00    +0.000 A 
ATOM     18  C25 UNL     1      61.727  53.893  70.120  0.00  0.00    +0.000 A 
ATOM     19  C26 UNL     1      61.166  54.695  69.120  0.00  0.00    +0.000 A 
ENDBRANCH  10  17
ENDBRANCH   8  10
ENDBRANCH   1   8
BRANCH   1  20
ATOM     20  C7  UNL     1      63.560  54.725  73.558  0.00  0.00    +0.000 C 
ATOM     21  O3  UNL     1      64.752  54.883  73.163  0.00  0.00    +0.000 OA
BRANCH  20  22
ATOM     22  O4  UNL     1      62.753  55.831  73.835  0.00  0.00    +0.000 OA
BRANCH  22  23
ATOM     23  C8  UNL     1      61.633  56.186  73.074  0.00  0.00    +0.000 A 
ATOM     24  C9  UNL     1      60.439  55.500  73.302  0.00  0.00    +0.000 A 
ATOM     25  C10 UNL     1      59.293  55.794  72.566  0.00  0.00    +0.000 A 
ATOM     26  C11 UNL     1      59.321  56.796  71.579  0.00  0.00    +0.000 A 
ATOM     27  C12 UNL     1      58.186  57.124  70.803  0.00  0.00    +0.000 A 
ATOM     28  C13 UNL     1      56.862  56.426  70.984  0.00  0.00    +0.000 C 
ATOM     29  C14 UNL     1      58.300  58.136  69.841  0.00  0.00    +0.000 A 
ATOM     30  C15 UNL     1      59.520  58.789  69.673  0.00  0.00    +0.000 A 
ATOM     31  O5  UNL     1      59.633  59.698  68.810  0.00  0.00    +0.000 OA
ATOM     32  O6  UNL     1      60.567  58.461  70.423  0.00  0.00    +0.000 OA
ATOM     33  C16 UNL     1      60.524  57.512  71.355  0.00  0.00    +0.000 A 
ATOM     34  C17 UNL     1      61.675  57.230  72.122  0.00  0.00    +0.000 A 
ATOM     35  C18 UNL     1      62.928  58.047  71.919  0.00  0.00    +0.000 C 
ENDBRANCH  22  23
ENDBRANCH  20  22
ENDBRANCH   1  20
TORSDOF 7
ENDMDL
MODEL 7
REMARK VINA RESULT:    -8.361      2.973      8.278
REMARK INTER + INTRA:         -12.877
REMARK INTER:                 -11.841
REMARK INTRA:                  -1.035
REMARK UNBOUND:                -1.095
REMARK  Name = CNP0120079_2.pdb
REMARK  10 active torsions:
REMARK  status: ('A' for Active; 'I' for Inactive)
REMARK    1  A    between atoms: C1_1  and  C2_2
REMARK    2  A    between atoms: C5_5  and  S1_6
REMARK    3  A    between atoms: S1_6  and  N1_9
REMARK    4  A    between atoms: N1_9  and  C6_10
REMARK    5  A    between atoms: C6_10  and  C7_11
REMARK    6  A    between atoms: C6_10  and  C19_27
REMARK    7  A    between atoms: C7_11  and  O4_13
REMARK    8  A    between atoms: O4_13  and  C8_14
REMARK    9  A    between atoms: C12_18  and  C13_19
REMARK   10  A    between atoms: C17_25  and  C18_26
REMARK                            x       y       z     vdW  Elec       q    Type
REMARK                         _______ _______ _______ _____ _____    ______ ____
ROOT
ATOM      1  C6  UNL     1      60.060  54.164  72.724  0.00  0.00    +0.000 C 
ENDROOT
BRANCH   1   2
ATOM      2  C19 UNL     1      58.954  55.170  73.002  0.00  0.00    +0.000 A 
ATOM      3  C20 UNL     1      59.045  56.501  72.548  0.00  0.00    +0.000 A 
ATOM      4  C21 UNL     1      58.027  57.415  72.832  0.00  0.00    +0.000 A 
ATOM      5  C22 UNL     1      56.903  57.010  73.556  0.00  0.00    +0.000 A 
ATOM      6  C23 UNL     1      56.784  55.685  73.979  0.00  0.00    +0.000 A 
ATOM      7  C24 UNL     1      57.797  54.765  73.695  0.00  0.00    +0.000 A 
ENDBRANCH   1   2
BRANCH   1   8
ATOM      8  N1  UNL     1      60.083  53.714  71.317  0.00  0.00    +0.000 NA
ATOM      9  H6  UNL     1      59.213  53.991  70.811  0.00  0.00    +0.000 HD
BRANCH   8  10
ATOM     10  S1  UNL     1      61.447  54.357  70.448  0.00  0.00    +0.000 S 
ATOM     11  O1  UNL     1      60.951  55.258  69.354  0.00  0.00    +0.000 OA
ATOM     12  O2  UNL     1      62.215  53.225  69.821  0.00  0.00    +0.000 OA
BRANCH  10  17
ATOM     13  C1  UNL     1      65.263  57.532  73.949  0.00  0.00    +0.000 C 
ATOM     14  C2  UNL     1      64.266  56.757  73.140  0.00  0.00    +0.000 A 
ATOM     15  C3  UNL     1      63.408  57.420  72.248  0.00  0.00    +0.000 A 
ATOM     16  C4  UNL     1      62.520  56.690  71.448  0.00  0.00    +0.000 A 
ATOM     17  C5  UNL     1      62.504  55.289  71.508  0.00  0.00    +0.000 A 
ATOM     18  C25 UNL     1      63.358  54.625  72.401  0.00  0.00    +0.000 A 
ATOM     19  C26 UNL     1      64.239  55.354  73.209  0.00  0.00    +0.000 A 
ENDBRANCH  10  17
ENDBRANCH   8  10
ENDBRANCH   1   8
BRANCH   1  20
ATOM     20  C7  UNL     1      59.900  52.987  73.641  0.00  0.00    +0.000 C 
ATOM     21  O3  UNL     1      58.980  52.140  73.445  0.00  0.00    +0.000 OA
BRANCH  20  22
ATOM     22  O4  UNL     1      60.760  52.858  74.735  0.00  0.00    +0.000 OA
BRANCH  22  23
ATOM     23  C8  UNL     1      60.410  53.207  76.045  0.00  0.00    +0.000 A 
ATOM     24  C9  UNL     1      59.076  53.522  76.307  0.00  0.00    +0.000 A 
ATOM     25  C10 UNL     1      58.667  53.894  77.585  0.00  0.00    +0.000 A 
ATOM     26  C11 UNL     1      59.596  53.953  78.639  0.00  0.00    +0.000 A 
ATOM     27  C12 UNL     1      59.229  54.331  79.951  0.00  0.00    +0.000 A 
ATOM     28  C13 UNL     1      57.811  54.693  80.314  0.00  0.00    +0.000 C 
ATOM     29  C14 UNL     1      60.218  54.364  80.943  0.00  0.00    +0.000 A 
ATOM     30  C15 UNL     1      61.530  54.025  80.614  0.00  0.00    +0.000 A 
ATOM     31  O5  UNL     1      62.426  54.053  81.498  0.00  0.00    +0.000 OA
ATOM     32  O6  UNL     1      61.842  53.668  79.373  0.00  0.00    +0.000 OA
ATOM     33  C16 UNL     1      60.949  53.614  78.387  0.00  0.00    +0.000 A 
ATOM     34  C17 UNL     1      61.355  53.212  77.096  0.00  0.00    +0.000 A 
ATOM     35  C18 UNL     1      62.784  52.788  76.858  0.00  0.00    +0.000 C 
ENDBRANCH  22  23
ENDBRANCH  20  22
ENDBRANCH   1  20
TORSDOF 7
ENDMDL
MODEL 8
REMARK VINA RESULT:    -8.230      3.644      6.991
REMARK INTER + INTRA:         -12.692
REMARK INTER:                  -9.647
REMARK INTRA:                  -3.046
REMARK UNBOUND:                -1.095
REMARK  Name = CNP0120079_2.pdb
REMARK  10 active torsions:
REMARK  status: ('A' for Active; 'I' for Inactive)
REMARK    1  A    between atoms: C1_1  and  C2_2
REMARK    2  A    between atoms: C5_5  and  S1_6
REMARK    3  A    between atoms: S1_6  and  N1_9
REMARK    4  A    between atoms: N1_9  and  C6_10
REMARK    5  A    between atoms: C6_10  and  C7_11
REMARK    6  A    between atoms: C6_10  and  C19_27
REMARK    7  A    between atoms: C7_11  and  O4_13
REMARK    8  A    between atoms: O4_13  and  C8_14
REMARK    9  A    between atoms: C12_18  and  C13_19
REMARK   10  A    between atoms: C17_25  and  C18_26
REMARK                            x       y       z     vdW  Elec       q    Type
REMARK                         _______ _______ _______ _____ _____    ______ ____
ROOT
ATOM      1  C6  UNL     1      57.650  55.224  69.507  0.00  0.00    +0.000 C 
ENDROOT
BRANCH   1   2
ATOM      2  C19 UNL     1      57.079  54.247  68.492  0.00  0.00    +0.000 A 
ATOM      3  C20 UNL     1      57.687  54.061  67.235  0.00  0.00    +0.000 A 
ATOM      4  C21 UNL     1      57.135  53.172  66.308  0.00  0.00    +0.000 A 
ATOM      5  C22 UNL     1      55.984  52.449  66.629  0.00  0.00    +0.000 A 
ATOM      6  C23 UNL     1      55.394  52.597  67.885  0.00  0.00    +0.000 A 
ATOM      7  C24 UNL     1      55.943  53.481  68.818  0.00  0.00    +0.000 A 
ENDBRANCH   1   2
BRANCH   1   8
ATOM      8  N1  UNL     1      56.631  55.734  70.447  0.00  0.00    +0.000 NA
ATOM      9  H6  UNL     1      55.816  55.084  70.518  0.00  0.00    +0.000 HD
BRANCH   8  10
ATOM     10  S1  UNL     1      57.278  55.975  72.044  0.00  0.00    +0.000 S 
ATOM     11  O1  UNL     1      56.142  56.136  73.014  0.00  0.00    +0.000 OA
ATOM     12  O2  UNL     1      58.100  57.235  72.062  0.00  0.00    +0.000 OA
BRANCH  10  17
ATOM     13  C1  UNL     1      60.799  51.279  73.605  0.00  0.00    +0.000 C 
ATOM     14  C2  UNL     1      59.884  52.423  73.282  0.00  0.00    +0.000 A 
ATOM     15  C3  UNL     1      60.118  53.693  73.831  0.00  0.00    +0.000 A 
ATOM     16  C4  UNL     1      59.301  54.775  73.480  0.00  0.00    +0.000 A 
ATOM     17  C5  UNL     1      58.262  54.604  72.553  0.00  0.00    +0.000 A 
ATOM     18  C25 UNL     1      58.025  53.334  72.007  0.00  0.00    +0.000 A 
ATOM     19  C26 UNL     1      58.834  52.249  72.365  0.00  0.00    +0.000 A 
ENDBRANCH  10  17
ENDBRANCH   8  10
ENDBRANCH   1   8
BRANCH   1  20
ATOM     20  C7  UNL     1      58.301  56.366  68.781  0.00  0.00    +0.000 C 
ATOM     21  O3  UNL     1      57.606  57.329  68.344  0.00  0.00    +0.000 OA
BRANCH  20  22
ATOM     22  O4  UNL     1      59.682  56.333  68.566  0.00  0.00    +0.000 OA
BRANCH  22  23
ATOM     23  C8  UNL     1      60.601  55.827  69.492  0.00  0.00    +0.000 A 
ATOM     24  C9  UNL     1      60.914  54.467  69.433  0.00  0.00    +0.000 A 
ATOM     25  C10 UNL     1      61.808  53.899  70.336  0.00  0.00    +0.000 A 
ATOM     26  C11 UNL     1      62.417  54.691  71.326  0.00  0.00    +0.000 A 
ATOM     27  C12 UNL     1      63.326  54.157  72.268  0.00  0.00    +0.000 A 
ATOM     28  C13 UNL     1      63.710  52.699  72.275  0.00  0.00    +0.000 C 
ATOM     29  C14 UNL     1      63.888  55.017  73.221  0.00  0.00    +0.000 A 
ATOM     30  C15 UNL     1      63.541  56.368  73.216  0.00  0.00    +0.000 A 
ATOM     31  O5  UNL     1      64.039  57.147  74.069  0.00  0.00    +0.000 OA
ATOM     32  O6  UNL     1      62.689  56.839  72.313  0.00  0.00    +0.000 OA
ATOM     33  C16 UNL     1      62.122  56.077  71.381  0.00  0.00    +0.000 A 
ATOM     34  C17 UNL     1      61.236  56.654  70.446  0.00  0.00    +0.000 A 
ATOM     35  C18 UNL     1      60.984  58.142  70.474  0.00  0.00    +0.000 C 
ENDBRANCH  22  23
ENDBRANCH  20  22
ENDBRANCH   1  20
TORSDOF 7
ENDMDL
MODEL 9
REMARK VINA RESULT:    -8.195      4.332      7.441
REMARK INTER + INTRA:         -12.643
REMARK INTER:                  -9.598
REMARK INTRA:                  -3.045
REMARK UNBOUND:                -1.095
REMARK  Name = CNP0120079_2.pdb
REMARK  10 active torsions:
REMARK  status: ('A' for Active; 'I' for Inactive)
REMARK    1  A    between atoms: C1_1  and  C2_2
REMARK    2  A    between atoms: C5_5  and  S1_6
REMARK    3  A    between atoms: S1_6  and  N1_9
REMARK    4  A    between atoms: N1_9  and  C6_10
REMARK    5  A    between atoms: C6_10  and  C7_11
REMARK    6  A    between atoms: C6_10  and  C19_27
REMARK    7  A    between atoms: C7_11  and  O4_13
REMARK    8  A    between atoms: O4_13  and  C8_14
REMARK    9  A    between atoms: C12_18  and  C13_19
REMARK   10  A    between atoms: C17_25  and  C18_26
REMARK                            x       y       z     vdW  Elec       q    Type
REMARK                         _______ _______ _______ _____ _____    ______ ____
ROOT
ATOM      1  C6  UNL     1      61.101  56.265  70.919  0.00  0.00    +0.000 C 
ENDROOT
BRANCH   1   2
ATOM      2  C19 UNL     1      62.370  56.218  71.755  0.00  0.00    +0.000 A 
ATOM      3  C20 UNL     1      62.870  54.999  72.256  0.00  0.00    +0.000 A 
ATOM      4  C21 UNL     1      64.028  54.980  73.039  0.00  0.00    +0.000 A 
ATOM      5  C22 UNL     1      64.707  56.169  73.317  0.00  0.00    +0.000 A 
ATOM      6  C23 UNL     1      64.242  57.377  72.796  0.00  0.00    +0.000 A 
ATOM      7  C24 UNL     1      63.087  57.403  72.009  0.00  0.00    +0.000 A 
ENDBRANCH   1   2
BRANCH   1   8
ATOM      8  N1  UNL     1      61.310  56.886  69.596  0.00  0.00    +0.000 NA
ATOM      9  H6  UNL     1      62.322  56.908  69.338  0.00  0.00    +0.000 HD
BRANCH   8  10
ATOM     10  S1  UNL     1      60.444  56.051  68.339  0.00  0.00    +0.000 S 
ATOM     11  O1  UNL     1      61.402  55.179  67.579  0.00  0.00    +0.000 OA
ATOM     12  O2  UNL     1      59.858  57.057  67.386  0.00  0.00    +0.000 OA
BRANCH  10  17
ATOM     13  C1  UNL     1      55.963  52.514  70.413  0.00  0.00    +0.000 C 
ATOM     14  C2  UNL     1      57.090  53.402  69.975  0.00  0.00    +0.000 A 
ATOM     15  C3  UNL     1      58.375  52.872  69.782  0.00  0.00    +0.000 A 
ATOM     16  C4  UNL     1      59.412  53.689  69.314  0.00  0.00    +0.000 A 
ATOM     17  C5  UNL     1      59.166  55.035  69.004  0.00  0.00    +0.000 A 
ATOM     18  C25 UNL     1      57.883  55.566  69.200  0.00  0.00    +0.000 A 
ATOM     19  C26 UNL     1      56.848  54.754  69.678  0.00  0.00    +0.000 A 
ENDBRANCH  10  17
ENDBRANCH   8  10
ENDBRANCH   1   8
BRANCH   1  20
ATOM     20  C7  UNL     1      60.038  57.007  71.677  0.00  0.00    +0.000 C 
ATOM     21  O3  UNL     1      59.477  58.022  71.170  0.00  0.00    +0.000 OA
BRANCH  20  22
ATOM     22  O4  UNL     1      59.701  56.581  72.965  0.00  0.00    +0.000 OA
BRANCH  22  23
ATOM     23  C8  UNL     1      58.767  55.573  73.231  0.00  0.00    +0.000 A 
ATOM     24  C9  UNL     1      59.217  54.251  73.262  0.00  0.00    +0.000 A 
ATOM     25  C10 UNL     1      58.335  53.201  73.504  0.00  0.00    +0.000 A 
ATOM     26  C11 UNL     1      56.970  53.457  73.728  0.00  0.00    +0.000 A 
ATOM     27  C12 UNL     1      56.037  52.423  73.971  0.00  0.00    +0.000 A 
ATOM     28  C13 UNL     1      56.441  50.972  74.013  0.00  0.00    +0.000 C 
ATOM     29  C14 UNL     1      54.695  52.766  74.184  0.00  0.00    +0.000 A 
ATOM     30  C15 UNL     1      54.316  54.108  74.151  0.00  0.00    +0.000 A 
ATOM     31  O5  UNL     1      53.113  54.425  74.339  0.00  0.00    +0.000 OA
ATOM     32  O6  UNL     1      55.219  55.056  73.926  0.00  0.00    +0.000 OA
ATOM     33  C16 UNL     1      56.508  54.797  73.719  0.00  0.00    +0.000 A 
ATOM     34  C17 UNL     1      57.410  55.861  73.500  0.00  0.00    +0.000 A 
ATOM     35  C18 UNL     1      56.916  57.286  73.561  0.00  0.00    +0.000 C 
ENDBRANCH  22  23
ENDBRANCH  20  22
ENDBRANCH   1  20
TORSDOF 7
ENDMDL
MODEL 10
REMARK VINA RESULT:    -8.157      2.423      4.431
REMARK INTER + INTRA:         -12.589
REMARK INTER:                  -9.454
REMARK INTRA:                  -3.135
REMARK UNBOUND:                -1.095
REMARK  Name = CNP0120079_2.pdb
REMARK  10 active torsions:
REMARK  status: ('A' for Active; 'I' for Inactive)
REMARK    1  A    between atoms: C1_1  and  C2_2
REMARK    2  A    between atoms: C5_5  and  S1_6
REMARK    3  A    between atoms: S1_6  and  N1_9
REMARK    4  A    between atoms: N1_9  and  C6_10
REMARK    5  A    between atoms: C6_10  and  C7_11
REMARK    6  A    between atoms: C6_10  and  C19_27
REMARK    7  A    between atoms: C7_11  and  O4_13
REMARK    8  A    between atoms: O4_13  and  C8_14
REMARK    9  A    between atoms: C12_18  and  C13_19
REMARK   10  A    between atoms: C17_25  and  C18_26
REMARK                            x       y       z     vdW  Elec       q    Type
REMARK                         _______ _______ _______ _____ _____    ______ ____
ROOT
ATOM      1  C6  UNL     1      62.409  53.482  74.371  0.00  0.00    +0.000 C 
ENDROOT
BRANCH   1   2
ATOM      2  C19 UNL     1      63.272  52.758  75.392  0.00  0.00    +0.000 A 
ATOM      3  C20 UNL     1      64.143  51.719  75.007  0.00  0.00    +0.000 A 
ATOM      4  C21 UNL     1      64.913  51.052  75.964  0.00  0.00    +0.000 A 
ATOM      5  C22 UNL     1      64.837  51.423  77.309  0.00  0.00    +0.000 A 
ATOM      6  C23 UNL     1      64.006  52.476  77.697  0.00  0.00    +0.000 A 
ATOM      7  C24 UNL     1      63.236  53.149  76.745  0.00  0.00    +0.000 A 
ENDBRANCH   1   2
BRANCH   1   8
ATOM      8  N1  UNL     1      61.806  52.567  73.381  0.00  0.00    +0.000 NA
ATOM      9  H6  UNL     1      62.246  51.621  73.415  0.00  0.00    +0.000 HD
BRANCH   8  10
ATOM     10  S1  UNL     1      60.092  52.382  73.622  0.00  0.00    +0.000 S 
ATOM     11  O1  UNL     1      59.816  52.239  75.091  0.00  0.00    +0.000 OA
ATOM     12  O2  UNL     1      59.625  51.132  72.926  0.00  0.00    +0.000 OA
BRANCH  10  17
ATOM     13  C1  UNL     1      57.216  57.249  71.401  0.00  0.00    +0.000 C 
ATOM     14  C2  UNL     1      57.864  56.035  71.997  0.00  0.00    +0.000 A 
ATOM     15  C3  UNL     1      57.636  54.766  71.442  0.00  0.00    +0.000 A 
ATOM     16  C4  UNL     1      58.290  53.641  71.959  0.00  0.00    +0.000 A 
ATOM     17  C5  UNL     1      59.203  53.778  73.016  0.00  0.00    +0.000 A 
ATOM     18  C25 UNL     1      59.430  55.046  73.572  0.00  0.00    +0.000 A 
ATOM     19  C26 UNL     1      58.768  56.169  73.064  0.00  0.00    +0.000 A 
ENDBRANCH  10  17
ENDBRANCH   8  10
ENDBRANCH   1   8
BRANCH   1  20
ATOM     20  C7  UNL     1      63.236  54.525  73.677  0.00  0.00    +0.000 C 
ATOM     21  O3  UNL     1      63.941  55.336  74.346  0.00  0.00    +0.000 OA
BRANCH  20  22
ATOM     22  O4  UNL     1      63.189  54.610  72.283  0.00  0.00    +0.000 OA
BRANCH  22  23
ATOM     23  C8  UNL     1      62.431  55.558  71.586  0.00  0.00    +0.000 A 
ATOM     24  C9  UNL     1      62.570  56.901  71.943  0.00  0.00    +0.000 A 
ATOM     25  C10 UNL     1      61.831  57.891  71.300  0.00  0.00    +0.000 A 
ATOM     26  C11 UNL     1      60.933  57.553  70.272  0.00  0.00    +0.000 A 
ATOM     27  C12 UNL     1      60.157  58.523  69.596  0.00  0.00    +0.000 A 
ATOM     28  C13 UNL     1      60.244  59.991  69.927  0.00  0.00    +0.000 C 
ATOM     29  C14 UNL     1      59.286  58.100  68.584  0.00  0.00    +0.000 A 
ATOM     30  C15 UNL     1      59.206  56.743  68.270  0.00  0.00    +0.000 A 
ATOM     31  O5  UNL     1      58.425  56.354  67.364  0.00  0.00    +0.000 OA
ATOM     32  O6  UNL     1      59.952  55.858  68.920  0.00  0.00    +0.000 OA
ATOM     33  C16 UNL     1      60.801  56.195  69.889  0.00  0.00    +0.000 A 
ATOM     34  C17 UNL     1      61.571  55.197  70.524  0.00  0.00    +0.000 A 
ATOM     35  C18 UNL     1      61.470  53.764  70.060  0.00  0.00    +0.000 C 
ENDBRANCH  22  23
ENDBRANCH  20  22
ENDBRANCH   1  20
TORSDOF 7
ENDMDL
