MODEL 1
REMARK VINA RESULT:    -8.652      0.000      0.000
REMARK INTER + INTRA:          -9.423
REMARK INTER:                  -9.157
REMARK INTRA:                  -0.266
REMARK UNBOUND:                -0.266
REMARK  Name = CNP0130524_0.pdb
REMARK  1 active torsions:
REMARK  status: ('A' for Active; 'I' for Inactive)
REMARK    1  A    between atoms: N1_7  and  C5_8
REMARK                            x       y       z     vdW  Elec       q    Type
REMARK                         _______ _______ _______ _____ _____    ______ ____
ROOT
ATOM      1  O1  UNL     1      62.912  53.400  71.520  0.00  0.00    +0.000 OA
ATOM      2  C1  UNL     1      62.602  54.619  71.429  0.00  0.00    +0.000 A 
ATOM      3  O2  UNL     1      61.614  54.965  70.617  0.00  0.00    +0.000 OA
ATOM      4  C2  UNL     1      61.209  56.220  70.450  0.00  0.00    +0.000 A 
ATOM      5  C3  UNL     1      60.151  56.483  69.559  0.00  0.00    +0.000 A 
ATOM      6  C4  UNL     1      59.480  55.356  68.809  0.00  0.00    +0.000 C 
ATOM      7  N1  UNL     1      58.657  55.869  67.708  0.00  0.00    +0.000 N 
ATOM      8  C11 UNL     1      57.829  57.049  67.959  0.00  0.00    +0.000 C 
ATOM      9  O3  UNL     1      58.624  58.080  68.533  0.00  0.00    +0.000 OA
ATOM     10  C12 UNL     1      59.690  57.801  69.395  0.00  0.00    +0.000 A 
ATOM     11  C13 UNL     1      60.306  58.846  70.079  0.00  0.00    +0.000 A 
ATOM     12  C14 UNL     1      61.367  58.596  70.951  0.00  0.00    +0.000 A 
ATOM     13  C15 UNL     1      61.836  57.279  71.158  0.00  0.00    +0.000 A 
ATOM     14  C16 UNL     1      62.904  56.955  72.040  0.00  0.00    +0.000 A 
ATOM     15  C17 UNL     1      63.607  57.924  72.797  0.00  0.00    +0.000 A 
ATOM     16  C18 UNL     1      64.647  57.551  73.650  0.00  0.00    +0.000 A 
ATOM     17  C19 UNL     1      65.013  56.213  73.768  0.00  0.00    +0.000 A 
ATOM     18  C20 UNL     1      64.340  55.237  73.037  0.00  0.00    +0.000 A 
ATOM     19  C21 UNL     1      63.288  55.594  72.172  0.00  0.00    +0.000 A 
ENDROOT
BRANCH   7  20
ATOM     20  C5  UNL     1      58.359  55.023  66.587  0.00  0.00    +0.000 A 
ATOM     21  C6  UNL     1      59.029  55.211  65.367  0.00  0.00    +0.000 A 
ATOM     22  C7  UNL     1      58.748  54.387  64.274  0.00  0.00    +0.000 A 
ATOM     23  C8  UNL     1      57.797  53.372  64.389  0.00  0.00    +0.000 A 
ATOM     24  C9  UNL     1      57.120  53.181  65.597  0.00  0.00    +0.000 A 
ATOM     25  C10 UNL     1      57.395  54.002  66.697  0.00  0.00    +0.000 A 
ATOM     26 CL1  UNL     1      56.490  53.765  68.186  0.00  0.00    +0.000 Cl
ENDBRANCH   7  20
TORSDOF 1
ENDMDL
MODEL 2
REMARK VINA RESULT:    -7.652      6.569      7.301
REMARK INTER + INTRA:          -8.365
REMARK INTER:                  -7.988
REMARK INTRA:                  -0.377
REMARK UNBOUND:                -0.266
REMARK  Name = CNP0130524_0.pdb
REMARK  1 active torsions:
REMARK  status: ('A' for Active; 'I' for Inactive)
REMARK    1  A    between atoms: N1_7  and  C5_8
REMARK                            x       y       z     vdW  Elec       q    Type
REMARK                         _______ _______ _______ _____ _____    ______ ____
ROOT
ATOM      1  O1  UNL     1      62.123  52.922  76.505  0.00  0.00    +0.000 OA
ATOM      2  C1  UNL     1      61.069  53.312  77.076  0.00  0.00    +0.000 A 
ATOM      3  O2  UNL     1      59.980  53.498  76.346  0.00  0.00    +0.000 OA
ATOM      4  C2  UNL     1      58.821  53.906  76.850  0.00  0.00    +0.000 A 
ATOM      5  C3  UNL     1      57.722  54.077  75.986  0.00  0.00    +0.000 A 
ATOM      6  C4  UNL     1      57.857  53.794  74.507  0.00  0.00    +0.000 C 
ATOM      7  N1  UNL     1      56.725  54.350  73.757  0.00  0.00    +0.000 N 
ATOM      8  C11 UNL     1      55.383  54.190  74.317  0.00  0.00    +0.000 C 
ATOM      9  O3  UNL     1      55.371  54.630  75.670  0.00  0.00    +0.000 OA
ATOM     10  C12 UNL     1      56.480  54.477  76.508  0.00  0.00    +0.000 A 
ATOM     11  C13 UNL     1      56.349  54.745  77.869  0.00  0.00    +0.000 A 
ATOM     12  C14 UNL     1      57.437  54.595  78.730  0.00  0.00    +0.000 A 
ATOM     13  C15 UNL     1      58.692  54.168  78.240  0.00  0.00    +0.000 A 
ATOM     14  C16 UNL     1      59.836  53.983  79.064  0.00  0.00    +0.000 A 
ATOM     15  C17 UNL     1      59.831  54.214  80.462  0.00  0.00    +0.000 A 
ATOM     16  C18 UNL     1      60.983  54.016  81.225  0.00  0.00    +0.000 A 
ATOM     17  C19 UNL     1      62.162  53.588  80.621  0.00  0.00    +0.000 A 
ATOM     18  C20 UNL     1      62.197  53.352  79.248  0.00  0.00    +0.000 A 
ATOM     19  C21 UNL     1      61.046  53.546  78.461  0.00  0.00    +0.000 A 
ENDROOT
BRANCH   7  20
ATOM     20  C5  UNL     1      56.877  54.658  72.363  0.00  0.00    +0.000 A 
ATOM     21  C6  UNL     1      56.748  53.642  71.401  0.00  0.00    +0.000 A 
ATOM     22  C7  UNL     1      56.888  53.935  70.042  0.00  0.00    +0.000 A 
ATOM     23  C8  UNL     1      57.160  55.242  69.633  0.00  0.00    +0.000 A 
ATOM     24  C9  UNL     1      57.297  56.259  70.582  0.00  0.00    +0.000 A 
ATOM     25  C10 UNL     1      57.158  55.973  71.947  0.00  0.00    +0.000 A 
ATOM     26 CL1  UNL     1      57.384  57.267  73.116  0.00  0.00    +0.000 Cl
ENDBRANCH   7  20
TORSDOF 1
ENDMDL
MODEL 3
REMARK VINA RESULT:    -7.590      3.051      7.402
REMARK INTER + INTRA:          -8.300
REMARK INTER:                  -8.039
REMARK INTRA:                  -0.261
REMARK UNBOUND:                -0.266
REMARK  Name = CNP0130524_0.pdb
REMARK  1 active torsions:
REMARK  status: ('A' for Active; 'I' for Inactive)
REMARK    1  A    between atoms: N1_7  and  C5_8
REMARK                            x       y       z     vdW  Elec       q    Type
REMARK                         _______ _______ _______ _____ _____    ______ ____
ROOT
ATOM      1  O1  UNL     1      61.129  52.924  67.067  0.00  0.00    +0.000 OA
ATOM      2  C1  UNL     1      60.628  54.041  67.367  0.00  0.00    +0.000 A 
ATOM      3  O2  UNL     1      60.892  54.559  68.557  0.00  0.00    +0.000 OA
ATOM      4  C2  UNL     1      60.415  55.728  68.969  0.00  0.00    +0.000 A 
ATOM      5  C3  UNL     1      60.753  56.189  70.256  0.00  0.00    +0.000 A 
ATOM      6  C4  UNL     1      61.652  55.369  71.153  0.00  0.00    +0.000 C 
ATOM      7  N1  UNL     1      61.600  55.853  72.537  0.00  0.00    +0.000 N 
ATOM      8  C11 UNL     1      61.621  57.298  72.763  0.00  0.00    +0.000 C 
ATOM      9  O3  UNL     1      60.627  57.924  71.961  0.00  0.00    +0.000 OA
ATOM     10  C12 UNL     1      60.283  57.438  70.695  0.00  0.00    +0.000 A 
ATOM     11  C13 UNL     1      59.451  58.197  69.876  0.00  0.00    +0.000 A 
ATOM     12  C14 UNL     1      59.096  57.741  68.606  0.00  0.00    +0.000 A 
ATOM     13  C15 UNL     1      59.575  56.501  68.125  0.00  0.00    +0.000 A 
ATOM     14  C16 UNL     1      59.261  55.984  66.837  0.00  0.00    +0.000 A 
ATOM     15  C17 UNL     1      58.433  56.662  65.909  0.00  0.00    +0.000 A 
ATOM     16  C18 UNL     1      58.158  56.109  64.657  0.00  0.00    +0.000 A 
ATOM     17  C19 UNL     1      58.696  54.875  64.300  0.00  0.00    +0.000 A 
ATOM     18  C20 UNL     1      59.515  54.186  65.191  0.00  0.00    +0.000 A 
ATOM     19  C21 UNL     1      59.804  54.727  66.459  0.00  0.00    +0.000 A 
ENDROOT
BRANCH   7  20
ATOM     20  C5  UNL     1      61.934  54.964  73.615  0.00  0.00    +0.000 A 
ATOM     21  C6  UNL     1      60.917  54.287  74.309  0.00  0.00    +0.000 A 
ATOM     22  C7  UNL     1      61.235  53.417  75.354  0.00  0.00    +0.000 A 
ATOM     23  C8  UNL     1      62.569  53.217  75.717  0.00  0.00    +0.000 A 
ATOM     24  C9  UNL     1      63.588  53.891  75.038  0.00  0.00    +0.000 A 
ATOM     25  C10 UNL     1      63.277  54.766  73.988  0.00  0.00    +0.000 A 
ATOM     26 CL1  UNL     1      64.581  55.634  73.188  0.00  0.00    +0.000 Cl
ENDBRANCH   7  20
TORSDOF 1
ENDMDL
MODEL 4
REMARK VINA RESULT:    -7.465     16.063     17.473
REMARK INTER + INTRA:          -8.167
REMARK INTER:                  -7.832
REMARK INTRA:                  -0.335
REMARK UNBOUND:                -0.266
REMARK  Name = CNP0130524_0.pdb
REMARK  1 active torsions:
REMARK  status: ('A' for Active; 'I' for Inactive)
REMARK    1  A    between atoms: N1_7  and  C5_8
REMARK                            x       y       z     vdW  Elec       q    Type
REMARK                         _______ _______ _______ _____ _____    ______ ____
ROOT
ATOM      1  O1  UNL     1      67.919  69.614  66.321  0.00  0.00    +0.000 OA
ATOM      2  C1  UNL     1      68.603  68.995  65.462  0.00  0.00    +0.000 A 
ATOM      3  O2  UNL     1      68.533  69.376  64.196  0.00  0.00    +0.000 OA
ATOM      4  C2  UNL     1      69.213  68.791  63.216  0.00  0.00    +0.000 A 
ATOM      5  C3  UNL     1      69.066  69.272  61.900  0.00  0.00    +0.000 A 
ATOM      6  C4  UNL     1      68.155  70.441  61.607  0.00  0.00    +0.000 C 
ATOM      7  N1  UNL     1      67.889  70.557  60.169  0.00  0.00    +0.000 N 
ATOM      8  C11 UNL     1      69.008  70.376  59.245  0.00  0.00    +0.000 C 
ATOM      9  O3  UNL     1      69.689  69.163  59.548  0.00  0.00    +0.000 OA
ATOM     10  C12 UNL     1      69.803  68.685  60.857  0.00  0.00    +0.000 A 
ATOM     11  C13 UNL     1      70.642  67.604  61.118  0.00  0.00    +0.000 A 
ATOM     12  C14 UNL     1      70.781  67.110  62.416  0.00  0.00    +0.000 A 
ATOM     13  C15 UNL     1      70.074  67.696  63.491  0.00  0.00    +0.000 A 
ATOM     14  C16 UNL     1      70.179  67.249  64.837  0.00  0.00    +0.000 A 
ATOM     15  C17 UNL     1      71.002  66.166  65.233  0.00  0.00    +0.000 A 
ATOM     16  C18 UNL     1      71.069  65.769  66.569  0.00  0.00    +0.000 A 
ATOM     17  C19 UNL     1      70.323  66.434  67.539  0.00  0.00    +0.000 A 
ATOM     18  C20 UNL     1      69.505  67.502  67.180  0.00  0.00    +0.000 A 
ATOM     19  C21 UNL     1      69.424  67.918  65.837  0.00  0.00    +0.000 A 
ENDROOT
BRANCH   7  20
ATOM     20  C5  UNL     1      66.700  71.223  59.716  0.00  0.00    +0.000 A 
ATOM     21  C6  UNL     1      66.502  72.583  60.006  0.00  0.00    +0.000 A 
ATOM     22  C7  UNL     1      65.350  73.239  59.563  0.00  0.00    +0.000 A 
ATOM     23  C8  UNL     1      64.388  72.542  58.830  0.00  0.00    +0.000 A 
ATOM     24  C9  UNL     1      64.572  71.187  58.541  0.00  0.00    +0.000 A 
ATOM     25  C10 UNL     1      65.723  70.522  58.982  0.00  0.00    +0.000 A 
ATOM     26 CL1  UNL     1      65.899  68.806  58.644  0.00  0.00    +0.000 Cl
ENDBRANCH   7  20
TORSDOF 1
ENDMDL
MODEL 5
REMARK VINA RESULT:    -7.421      4.229      4.703
REMARK INTER + INTRA:          -8.120
REMARK INTER:                  -7.801
REMARK INTRA:                  -0.318
REMARK UNBOUND:                -0.266
REMARK  Name = CNP0130524_0.pdb
REMARK  1 active torsions:
REMARK  status: ('A' for Active; 'I' for Inactive)
REMARK    1  A    between atoms: N1_7  and  C5_8
REMARK                            x       y       z     vdW  Elec       q    Type
REMARK                         _______ _______ _______ _____ _____    ______ ____
ROOT
ATOM      1  O1  UNL     1      56.263  52.868  71.183  0.00  0.00    +0.000 OA
ATOM      2  C1  UNL     1      56.673  54.040  70.970  0.00  0.00    +0.000 A 
ATOM      3  O2  UNL     1      57.041  54.373  69.742  0.00  0.00    +0.000 OA
ATOM      4  C2  UNL     1      57.487  55.581  69.413  0.00  0.00    +0.000 A 
ATOM      5  C3  UNL     1      57.856  55.832  68.077  0.00  0.00    +0.000 A 
ATOM      6  C4  UNL     1      57.741  54.747  67.031  0.00  0.00    +0.000 C 
ATOM      7  N1  UNL     1      58.480  55.104  65.816  0.00  0.00    +0.000 N 
ATOM      8  C11 UNL     1      58.373  56.478  65.323  0.00  0.00    +0.000 C 
ATOM      9  O3  UNL     1      58.648  57.390  66.380  0.00  0.00    +0.000 OA
ATOM     10  C12 UNL     1      58.299  57.113  67.706  0.00  0.00    +0.000 A 
ATOM     11  C13 UNL     1      58.413  58.117  68.665  0.00  0.00    +0.000 A 
ATOM     12  C14 UNL     1      58.065  57.872  69.994  0.00  0.00    +0.000 A 
ATOM     13  C15 UNL     1      57.591  56.602  70.394  0.00  0.00    +0.000 A 
ATOM     14  C16 UNL     1      57.209  56.290  71.728  0.00  0.00    +0.000 A 
ATOM     15  C17 UNL     1      57.271  57.224  72.791  0.00  0.00    +0.000 A 
ATOM     16  C18 UNL     1      56.882  56.865  74.083  0.00  0.00    +0.000 A 
ATOM     17  C19 UNL     1      56.427  55.576  74.348  0.00  0.00    +0.000 A 
ATOM     18  C20 UNL     1      56.355  54.636  73.323  0.00  0.00    +0.000 A 
ATOM     19  C21 UNL     1      56.742  54.979  72.013  0.00  0.00    +0.000 A 
ENDROOT
BRANCH   7  20
ATOM     20  C5  UNL     1      58.937  54.070  64.930  0.00  0.00    +0.000 A 
ATOM     21  C6  UNL     1      58.236  53.800  63.743  0.00  0.00    +0.000 A 
ATOM     22  C7  UNL     1      58.679  52.800  62.874  0.00  0.00    +0.000 A 
ATOM     23  C8  UNL     1      59.822  52.060  63.184  0.00  0.00    +0.000 A 
ATOM     24  C9  UNL     1      60.523  52.316  64.366  0.00  0.00    +0.000 A 
ATOM     25  C10 UNL     1      60.085  53.317  65.242  0.00  0.00    +0.000 A 
ATOM     26 CL1  UNL     1      60.963  53.579  66.743  0.00  0.00    +0.000 Cl
ENDBRANCH   7  20
TORSDOF 1
ENDMDL
MODEL 6
REMARK VINA RESULT:    -7.417      4.056      7.725
REMARK INTER + INTRA:          -8.117
REMARK INTER:                  -7.844
REMARK INTRA:                  -0.273
REMARK UNBOUND:                -0.266
REMARK  Name = CNP0130524_0.pdb
REMARK  1 active torsions:
REMARK  status: ('A' for Active; 'I' for Inactive)
REMARK    1  A    between atoms: N1_7  and  C5_8
REMARK                            x       y       z     vdW  Elec       q    Type
REMARK                         _______ _______ _______ _____ _____    ______ ____
ROOT
ATOM      1  O1  UNL     1      57.798  55.867  70.869  0.00  0.00    +0.000 OA
ATOM      2  C1  UNL     1      58.902  56.431  71.100  0.00  0.00    +0.000 A 
ATOM      3  O2  UNL     1      59.771  55.828  71.897  0.00  0.00    +0.000 OA
ATOM      4  C2  UNL     1      60.960  56.337  72.202  0.00  0.00    +0.000 A 
ATOM      5  C3  UNL     1      61.811  55.617  73.063  0.00  0.00    +0.000 A 
ATOM      6  C4  UNL     1      61.382  54.282  73.626  0.00  0.00    +0.000 C 
ATOM      7  N1  UNL     1      62.246  53.875  74.739  0.00  0.00    +0.000 N 
ATOM      8  C11 UNL     1      63.689  54.073  74.599  0.00  0.00    +0.000 C 
ATOM      9  O3  UNL     1      63.953  55.415  74.205  0.00  0.00    +0.000 OA
ATOM     10  C12 UNL     1      63.084  56.126  73.370  0.00  0.00    +0.000 A 
ATOM     11  C13 UNL     1      63.485  57.358  72.860  0.00  0.00    +0.000 A 
ATOM     12  C14 UNL     1      62.642  58.087  72.019  0.00  0.00    +0.000 A 
ATOM     13  C15 UNL     1      61.366  57.589  71.670  0.00  0.00    +0.000 A 
ATOM     14  C16 UNL     1      60.463  58.275  70.810  0.00  0.00    +0.000 A 
ATOM     15  C17 UNL     1      60.755  59.530  70.221  0.00  0.00    +0.000 A 
ATOM     16  C18 UNL     1      59.834  60.159  69.383  0.00  0.00    +0.000 A 
ATOM     17  C19 UNL     1      58.606  59.561  69.112  0.00  0.00    +0.000 A 
ATOM     18  C20 UNL     1      58.291  58.327  69.677  0.00  0.00    +0.000 A 
ATOM     19  C21 UNL     1      59.208  57.676  70.524  0.00  0.00    +0.000 A 
ENDROOT
BRANCH   7  20
ATOM     20  C5  UNL     1      61.752  52.956  75.726  0.00  0.00    +0.000 A 
ATOM     21  C6  UNL     1      61.278  53.435  76.958  0.00  0.00    +0.000 A 
ATOM     22  C7  UNL     1      60.790  52.546  77.920  0.00  0.00    +0.000 A 
ATOM     23  C8  UNL     1      60.774  51.174  77.660  0.00  0.00    +0.000 A 
ATOM     24  C9  UNL     1      61.250  50.687  76.440  0.00  0.00    +0.000 A 
ATOM     25  C10 UNL     1      61.740  51.571  75.471  0.00  0.00    +0.000 A 
ATOM     26 CL1  UNL     1      62.376  50.919  73.966  0.00  0.00    +0.000 Cl
ENDBRANCH   7  20
TORSDOF 1
ENDMDL
MODEL 7
REMARK VINA RESULT:    -7.075      2.536      7.529
REMARK INTER + INTRA:          -7.754
REMARK INTER:                  -7.473
REMARK INTRA:                  -0.282
REMARK UNBOUND:                -0.266
REMARK  Name = CNP0130524_0.pdb
REMARK  1 active torsions:
REMARK  status: ('A' for Active; 'I' for Inactive)
REMARK    1  A    between atoms: N1_7  and  C5_8
REMARK                            x       y       z     vdW  Elec       q    Type
REMARK                         _______ _______ _______ _____ _____    ______ ____
ROOT
ATOM      1  O1  UNL     1      61.004  52.688  66.593  0.00  0.00    +0.000 OA
ATOM      2  C1  UNL     1      60.008  53.177  67.191  0.00  0.00    +0.000 A 
ATOM      3  O2  UNL     1      60.216  54.046  68.170  0.00  0.00    +0.000 OA
ATOM      4  C2  UNL     1      59.237  54.619  68.862  0.00  0.00    +0.000 A 
ATOM      5  C3  UNL     1      59.566  55.528  69.886  0.00  0.00    +0.000 A 
ATOM      6  C4  UNL     1      61.010  55.852  70.190  0.00  0.00    +0.000 C 
ATOM      7  N1  UNL     1      61.138  56.536  71.482  0.00  0.00    +0.000 N 
ATOM      8  C11 UNL     1      60.168  57.582  71.806  0.00  0.00    +0.000 C 
ATOM      9  O3  UNL     1      58.847  57.090  71.611  0.00  0.00    +0.000 OA
ATOM     10  C12 UNL     1      58.542  56.166  70.606  0.00  0.00    +0.000 A 
ATOM     11  C13 UNL     1      57.209  55.869  70.335  0.00  0.00    +0.000 A 
ATOM     12  C14 UNL     1      56.874  54.957  69.333  0.00  0.00    +0.000 A 
ATOM     13  C15 UNL     1      57.880  54.318  68.573  0.00  0.00    +0.000 A 
ATOM     14  C16 UNL     1      57.608  53.388  67.531  0.00  0.00    +0.000 A 
ATOM     15  C17 UNL     1      56.296  53.008  67.155  0.00  0.00    +0.000 A 
ATOM     16  C18 UNL     1      56.084  52.092  66.123  0.00  0.00    +0.000 A 
ATOM     17  C19 UNL     1      57.165  51.533  65.446  0.00  0.00    +0.000 A 
ATOM     18  C20 UNL     1      58.466  51.888  65.794  0.00  0.00    +0.000 A 
ATOM     19  C21 UNL     1      58.700  52.811  66.831  0.00  0.00    +0.000 A 
ENDROOT
BRANCH   7  20
ATOM     20  C5  UNL     1      62.381  56.480  72.198  0.00  0.00    +0.000 A 
ATOM     21  C6  UNL     1      63.213  57.610  72.253  0.00  0.00    +0.000 A 
ATOM     22  C7  UNL     1      64.421  57.564  72.954  0.00  0.00    +0.000 A 
ATOM     23  C8  UNL     1      64.808  56.390  73.602  0.00  0.00    +0.000 A 
ATOM     24  C9  UNL     1      63.992  55.257  73.548  0.00  0.00    +0.000 A 
ATOM     25  C10 UNL     1      62.779  55.295  72.848  0.00  0.00    +0.000 A 
ATOM     26 CL1  UNL     1      61.800  53.838  72.760  0.00  0.00    +0.000 Cl
ENDBRANCH   7  20
TORSDOF 1
ENDMDL
MODEL 8
REMARK VINA RESULT:    -7.030      4.703      5.227
REMARK INTER + INTRA:          -7.706
REMARK INTER:                  -7.437
REMARK INTRA:                  -0.269
REMARK UNBOUND:                -0.266
REMARK  Name = CNP0130524_0.pdb
REMARK  1 active torsions:
REMARK  status: ('A' for Active; 'I' for Inactive)
REMARK    1  A    between atoms: N1_7  and  C5_8
REMARK                            x       y       z     vdW  Elec       q    Type
REMARK                         _______ _______ _______ _____ _____    ______ ____
ROOT
ATOM      1  O1  UNL     1      62.497  52.785  74.004  0.00  0.00    +0.000 OA
ATOM      2  C1  UNL     1      61.942  53.875  73.696  0.00  0.00    +0.000 A 
ATOM      3  O2  UNL     1      60.621  53.920  73.626  0.00  0.00    +0.000 OA
ATOM      4  C2  UNL     1      59.940  55.017  73.312  0.00  0.00    +0.000 A 
ATOM      5  C3  UNL     1      58.534  54.958  73.262  0.00  0.00    +0.000 A 
ATOM      6  C4  UNL     1      57.808  53.669  73.567  0.00  0.00    +0.000 C 
ATOM      7  N1  UNL     1      56.408  53.735  73.134  0.00  0.00    +0.000 N 
ATOM      8  C11 UNL     1      55.662  54.964  73.400  0.00  0.00    +0.000 C 
ATOM      9  O3  UNL     1      56.401  56.086  72.930  0.00  0.00    +0.000 OA
ATOM     10  C12 UNL     1      57.799  56.118  72.962  0.00  0.00    +0.000 A 
ATOM     11  C13 UNL     1      58.461  57.309  72.674  0.00  0.00    +0.000 A 
ATOM     12  C14 UNL     1      59.854  57.372  72.705  0.00  0.00    +0.000 A 
ATOM     13  C15 UNL     1      60.622  56.230  73.029  0.00  0.00    +0.000 A 
ATOM     14  C16 UNL     1      62.043  56.230  73.090  0.00  0.00    +0.000 A 
ATOM     15  C17 UNL     1      62.831  57.377  72.827  0.00  0.00    +0.000 A 
ATOM     16  C18 UNL     1      64.224  57.322  72.902  0.00  0.00    +0.000 A 
ATOM     17  C19 UNL     1      64.863  56.131  73.237  0.00  0.00    +0.000 A 
ATOM     18  C20 UNL     1      64.115  54.987  73.502  0.00  0.00    +0.000 A 
ATOM     19  C21 UNL     1      62.709  55.022  73.432  0.00  0.00    +0.000 A 
ENDROOT
BRANCH   7  20
ATOM     20  C5  UNL     1      55.693  52.522  72.848  0.00  0.00    +0.000 A 
ATOM     21  C6  UNL     1      55.560  52.082  71.521  0.00  0.00    +0.000 A 
ATOM     22  C7  UNL     1      54.871  50.900  71.236  0.00  0.00    +0.000 A 
ATOM     23  C8  UNL     1      54.308  50.151  72.272  0.00  0.00    +0.000 A 
ATOM     24  C9  UNL     1      54.429  50.585  73.595  0.00  0.00    +0.000 A 
ATOM     25  C10 UNL     1      55.119  51.768  73.889  0.00  0.00    +0.000 A 
ATOM     26 CL1  UNL     1      55.210  52.309  75.560  0.00  0.00    +0.000 Cl
ENDBRANCH   7  20
TORSDOF 1
ENDMDL
MODEL 9
REMARK VINA RESULT:    -6.803      3.081      4.536
REMARK INTER + INTRA:          -7.467
REMARK INTER:                  -7.240
REMARK INTRA:                  -0.227
REMARK UNBOUND:                -0.266
REMARK  Name = CNP0130524_0.pdb
REMARK  1 active torsions:
REMARK  status: ('A' for Active; 'I' for Inactive)
REMARK    1  A    between atoms: N1_7  and  C5_8
REMARK                            x       y       z     vdW  Elec       q    Type
REMARK                         _______ _______ _______ _____ _____    ______ ____
ROOT
ATOM      1  O1  UNL     1      59.706  52.064  74.438  0.00  0.00    +0.000 OA
ATOM      2  C1  UNL     1      60.748  52.773  74.390  0.00  0.00    +0.000 A 
ATOM      3  O2  UNL     1      60.810  53.755  73.503  0.00  0.00    +0.000 OA
ATOM      4  C2  UNL     1      61.860  54.558  73.372  0.00  0.00    +0.000 A 
ATOM      5  C3  UNL     1      61.826  55.572  72.394  0.00  0.00    +0.000 A 
ATOM      6  C4  UNL     1      60.612  55.748  71.511  0.00  0.00    +0.000 C 
ATOM      7  N1  UNL     1      60.913  56.611  70.365  0.00  0.00    +0.000 N 
ATOM      8  C11 UNL     1      61.710  57.816  70.600  0.00  0.00    +0.000 C 
ATOM      9  O3  UNL     1      62.893  57.477  71.315  0.00  0.00    +0.000 OA
ATOM     10  C12 UNL     1      62.916  56.450  72.264  0.00  0.00    +0.000 A 
ATOM     11  C13 UNL     1      64.040  56.291  73.070  0.00  0.00    +0.000 A 
ATOM     12  C14 UNL     1      64.089  55.280  74.030  0.00  0.00    +0.000 A 
ATOM     13  C15 UNL     1      62.998  54.397  74.204  0.00  0.00    +0.000 A 
ATOM     14  C16 UNL     1      62.978  53.353  75.170  0.00  0.00    +0.000 A 
ATOM     15  C17 UNL     1      64.055  53.093  76.054  0.00  0.00    +0.000 A 
ATOM     16  C18 UNL     1      63.983  52.056  76.985  0.00  0.00    +0.000 A 
ATOM     17  C19 UNL     1      62.846  51.256  77.059  0.00  0.00    +0.000 A 
ATOM     18  C20 UNL     1      61.771  51.487  76.204  0.00  0.00    +0.000 A 
ATOM     19  C21 UNL     1      61.825  52.529  75.258  0.00  0.00    +0.000 A 
ENDROOT
BRANCH   7  20
ATOM     20  C5  UNL     1      60.124  56.509  69.169  0.00  0.00    +0.000 A 
ATOM     21  C6  UNL     1      60.690  55.980  67.997  0.00  0.00    +0.000 A 
ATOM     22  C7  UNL     1      59.926  55.872  66.832  0.00  0.00    +0.000 A 
ATOM     23  C8  UNL     1      58.595  56.292  66.827  0.00  0.00    +0.000 A 
ATOM     24  C9  UNL     1      58.024  56.826  67.985  0.00  0.00    +0.000 A 
ATOM     25  C10 UNL     1      58.783  56.938  69.158  0.00  0.00    +0.000 A 
ATOM     26 CL1  UNL     1      58.048  57.660  70.583  0.00  0.00    +0.000 Cl
ENDBRANCH   7  20
TORSDOF 1
ENDMDL
MODEL 10
REMARK VINA RESULT:    -6.792      5.033      8.881
REMARK INTER + INTRA:          -7.454
REMARK INTER:                  -7.188
REMARK INTRA:                  -0.266
REMARK UNBOUND:                -0.266
REMARK  Name = CNP0130524_0.pdb
REMARK  1 active torsions:
REMARK  status: ('A' for Active; 'I' for Inactive)
REMARK    1  A    between atoms: N1_7  and  C5_8
REMARK                            x       y       z     vdW  Elec       q    Type
REMARK                         _______ _______ _______ _____ _____    ______ ____
ROOT
ATOM      1  O1  UNL     1      57.466  55.542  73.321  0.00  0.00    +0.000 OA
ATOM      2  C1  UNL     1      58.683  55.636  73.006  0.00  0.00    +0.000 A 
ATOM      3  O2  UNL     1      59.575  54.945  73.699  0.00  0.00    +0.000 OA
ATOM      4  C2  UNL     1      60.880  54.973  73.447  0.00  0.00    +0.000 A 
ATOM      5  C3  UNL     1      61.746  54.203  74.247  0.00  0.00    +0.000 A 
ATOM      6  C4  UNL     1      61.201  53.352  75.370  0.00  0.00    +0.000 C 
ATOM      7  N1  UNL     1      62.274  52.913  76.270  0.00  0.00    +0.000 N 
ATOM      8  C11 UNL     1      63.528  52.454  75.673  0.00  0.00    +0.000 C 
ATOM      9  O3  UNL     1      63.999  53.421  74.741  0.00  0.00    +0.000 OA
ATOM     10  C12 UNL     1      63.125  54.197  73.974  0.00  0.00    +0.000 A 
ATOM     11  C13 UNL     1      63.635  54.982  72.943  0.00  0.00    +0.000 A 
ATOM     12  C14 UNL     1      62.786  55.762  72.157  0.00  0.00    +0.000 A 
ATOM     13  C15 UNL     1      61.391  55.769  72.389  0.00  0.00    +0.000 A 
ATOM     14  C16 UNL     1      60.470  56.530  71.618  0.00  0.00    +0.000 A 
ATOM     15  C17 UNL     1      60.862  57.362  70.540  0.00  0.00    +0.000 A 
ATOM     16  C18 UNL     1      59.916  58.087  69.814  0.00  0.00    +0.000 A 
ATOM     17  C19 UNL     1      58.565  58.006  70.142  0.00  0.00    +0.000 A 
ATOM     18  C20 UNL     1      58.149  57.196  71.196  0.00  0.00    +0.000 A 
ATOM     19  C21 UNL     1      59.089  56.456  71.940  0.00  0.00    +0.000 A 
ENDROOT
BRANCH   7  20
ATOM     20  C5  UNL     1      61.966  52.558  77.626  0.00  0.00    +0.000 A 
ATOM     21  C6  UNL     1      62.272  53.444  78.672  0.00  0.00    +0.000 A 
ATOM     22  C7  UNL     1      61.969  53.108  79.994  0.00  0.00    +0.000 A 
ATOM     23  C8  UNL     1      61.361  51.884  80.282  0.00  0.00    +0.000 A 
ATOM     24  C9  UNL     1      61.058  50.992  79.250  0.00  0.00    +0.000 A 
ATOM     25  C10 UNL     1      61.359  51.322  77.922  0.00  0.00    +0.000 A 
ATOM     26 CL1  UNL     1      61.008  50.156  76.654  0.00  0.00    +0.000 Cl
ENDBRANCH   7  20
TORSDOF 1
ENDMDL
