MODEL 1
REMARK VINA RESULT:    -8.673      0.000      0.000
REMARK INTER + INTRA:         -12.504
REMARK INTER:                 -11.208
REMARK INTRA:                  -1.296
REMARK UNBOUND:                -1.296
REMARK  Name = CNP0033430_1.pdb
REMARK  5 active torsions:
REMARK  status: ('A' for Active; 'I' for Inactive)
REMARK    1  A    between atoms: C4_5  and  N1_6
REMARK    2  A    between atoms: N1_6  and  C5_7
REMARK    3  A    between atoms: C5_7  and  C6_8
REMARK    4  A    between atoms: N2_22  and  S1_23
REMARK    5  A    between atoms: S1_23  and  C19_26
REMARK                            x       y       z     vdW  Elec       q    Type
REMARK                         _______ _______ _______ _____ _____    ______ ____
ROOT
ATOM      1  O1  UNL     1      58.480  55.631  65.422  0.00  0.00    +0.000 OA
ATOM      2  C1  UNL     1      58.001  55.376  66.562  0.00  0.00    +0.000 A 
ATOM      3  C2  UNL     1      57.255  54.215  66.725  0.00  0.00    +0.000 A 
ATOM      4  C3  UNL     1      56.707  53.915  67.959  0.00  0.00    +0.000 A 
ATOM      5  C4  UNL     1      56.883  54.778  69.050  0.00  0.00    +0.000 A 
ATOM      6  C14 UNL     1      57.632  55.975  68.854  0.00  0.00    +0.000 A 
ATOM      7  C15 UNL     1      57.863  56.935  70.031  0.00  0.00    +0.000 C 
ATOM      8  C16 UNL     1      58.319  58.303  69.556  0.00  0.00    +0.000 C 
ATOM      9  C17 UNL     1      59.535  58.080  68.669  0.00  0.00    +0.000 C 
ATOM     10  C18 UNL     1      60.610  57.152  69.323  0.00  0.00    +0.000 C 
ATOM     11  N2  UNL     1      60.318  56.753  70.717  0.00  0.00    +0.000 NA
ATOM     12  C25 UNL     1      58.913  56.373  71.023  0.00  0.00    +0.000 C 
ATOM     13  C26 UNL     1      59.015  57.451  67.368  0.00  0.00    +0.000 C 
ATOM     14  N3  UNL     1      58.213  56.229  67.618  0.00  0.00    +0.000 N 
ENDROOT
BRANCH  11  15
ATOM     15  S1  UNL     1      61.052  57.826  71.893  0.00  0.00    +0.000 S 
ATOM     16  O3  UNL     1      60.112  58.086  73.038  0.00  0.00    +0.000 OA
ATOM     17  O4  UNL     1      61.417  59.140  71.261  0.00  0.00    +0.000 OA
BRANCH  15  18
ATOM     18  C19 UNL     1      62.497  57.052  72.536  0.00  0.00    +0.000 A 
ATOM     19  C20 UNL     1      63.669  57.793  72.757  0.00  0.00    +0.000 A 
ATOM     20  C21 UNL     1      64.818  57.158  73.236  0.00  0.00    +0.000 A 
ATOM     21  C22 UNL     1      64.804  55.785  73.494  0.00  0.00    +0.000 A 
ATOM     22  C23 UNL     1      63.641  55.044  73.273  0.00  0.00    +0.000 A 
ATOM     23  C24 UNL     1      62.490  55.675  72.792  0.00  0.00    +0.000 A 
ENDBRANCH  15  18
ENDBRANCH  11  15
BRANCH   5  24
ATOM     24  N1  UNL     1      56.329  54.429  70.343  0.00  0.00    +0.000 N 
ATOM     25  H3  UNL     1      55.588  55.018  70.783  0.00  0.00    +0.000 HD
BRANCH  24  26
ATOM     26  C5  UNL     1      56.827  53.330  71.173  0.00  0.00    +0.000 C 
BRANCH  26  27
ATOM     27  C6  UNL     1      56.764  53.705  72.622  0.00  0.00    +0.000 A 
ATOM     28  C7  UNL     1      55.786  54.505  73.208  0.00  0.00    +0.000 A 
ATOM     29  C8  UNL     1      56.144  54.556  74.536  0.00  0.00    +0.000 A 
ATOM     30  C9  UNL     1      55.558  55.218  75.615  0.00  0.00    +0.000 A 
ATOM     31  C10 UNL     1      56.174  55.092  76.875  0.00  0.00    +0.000 A 
ATOM     32  C11 UNL     1      57.350  54.319  77.021  0.00  0.00    +0.000 A 
ATOM     33  C12 UNL     1      57.919  53.663  75.911  0.00  0.00    +0.000 A 
ATOM     34  C13 UNL     1      57.285  53.807  74.676  0.00  0.00    +0.000 A 
ATOM     35  O2  UNL     1      57.647  53.304  73.521  0.00  0.00    +0.000 OA
ENDBRANCH  26  27
ENDBRANCH  24  26
ENDBRANCH   5  24
TORSDOF 5
ENDMDL
MODEL 2
REMARK VINA RESULT:    -8.496      1.221      1.680
REMARK INTER + INTRA:         -12.275
REMARK INTER:                 -10.352
REMARK INTRA:                  -1.923
REMARK UNBOUND:                -1.296
REMARK  Name = CNP0033430_1.pdb
REMARK  5 active torsions:
REMARK  status: ('A' for Active; 'I' for Inactive)
REMARK    1  A    between atoms: C4_5  and  N1_6
REMARK    2  A    between atoms: N1_6  and  C5_7
REMARK    3  A    between atoms: C5_7  and  C6_8
REMARK    4  A    between atoms: N2_22  and  S1_23
REMARK    5  A    between atoms: S1_23  and  C19_26
REMARK                            x       y       z     vdW  Elec       q    Type
REMARK                         _______ _______ _______ _____ _____    ______ ____
ROOT
ATOM      1  O1  UNL     1      58.664  55.866  65.237  0.00  0.00    +0.000 OA
ATOM      2  C1  UNL     1      58.161  55.556  66.353  0.00  0.00    +0.000 A 
ATOM      3  C2  UNL     1      57.434  54.375  66.448  0.00  0.00    +0.000 A 
ATOM      4  C3  UNL     1      56.860  54.014  67.654  0.00  0.00    +0.000 A 
ATOM      5  C4  UNL     1      56.993  54.834  68.784  0.00  0.00    +0.000 A 
ATOM      6  C14 UNL     1      57.723  56.052  68.657  0.00  0.00    +0.000 A 
ATOM      7  C15 UNL     1      57.906  56.966  69.878  0.00  0.00    +0.000 C 
ATOM      8  C16 UNL     1      58.347  58.360  69.472  0.00  0.00    +0.000 C 
ATOM      9  C17 UNL     1      59.589  58.196  68.608  0.00  0.00    +0.000 C 
ATOM     10  C18 UNL     1      60.665  57.262  69.252  0.00  0.00    +0.000 C 
ATOM     11  N2  UNL     1      60.345  56.800  70.620  0.00  0.00    +0.000 NA
ATOM     12  C25 UNL     1      58.941  56.381  70.873  0.00  0.00    +0.000 C 
ATOM     13  C26 UNL     1      59.115  57.614  67.269  0.00  0.00    +0.000 C 
ATOM     14  N3  UNL     1      58.330  56.368  67.448  0.00  0.00    +0.000 N 
ENDROOT
BRANCH  11  15
ATOM     15  S1  UNL     1      61.029  57.836  71.858  0.00  0.00    +0.000 S 
ATOM     16  O3  UNL     1      60.051  58.039  72.982  0.00  0.00    +0.000 OA
ATOM     17  O4  UNL     1      61.395  59.177  71.288  0.00  0.00    +0.000 OA
BRANCH  15  18
ATOM     18  C19 UNL     1      62.464  57.055  72.515  0.00  0.00    +0.000 A 
ATOM     19  C20 UNL     1      63.641  57.787  72.735  0.00  0.00    +0.000 A 
ATOM     20  C21 UNL     1      64.782  57.147  73.226  0.00  0.00    +0.000 A 
ATOM     21  C22 UNL     1      64.755  55.777  73.498  0.00  0.00    +0.000 A 
ATOM     22  C23 UNL     1      63.586  55.045  73.279  0.00  0.00    +0.000 A 
ATOM     23  C24 UNL     1      62.443  55.681  72.786  0.00  0.00    +0.000 A 
ENDBRANCH  15  18
ENDBRANCH  11  15
BRANCH   5  24
ATOM     24  N1  UNL     1      56.413  54.421  70.046  0.00  0.00    +0.000 N 
ATOM     25  H3  UNL     1      55.910  55.107  70.652  0.00  0.00    +0.000 HD
BRANCH  24  26
ATOM     26  C5  UNL     1      56.580  53.085  70.622  0.00  0.00    +0.000 C 
BRANCH  26  27
ATOM     27  C6  UNL     1      57.545  53.130  71.766  0.00  0.00    +0.000 A 
ATOM     28  C7  UNL     1      57.313  53.745  72.995  0.00  0.00    +0.000 A 
ATOM     29  C8  UNL     1      58.469  53.518  73.708  0.00  0.00    +0.000 A 
ATOM     30  C9  UNL     1      58.838  53.905  74.996  0.00  0.00    +0.000 A 
ATOM     31  C10 UNL     1      60.115  53.528  75.453  0.00  0.00    +0.000 A 
ATOM     32  C11 UNL     1      60.984  52.787  74.617  0.00  0.00    +0.000 A 
ATOM     33  C12 UNL     1      60.582  52.413  73.319  0.00  0.00    +0.000 A 
ATOM     34  C13 UNL     1      59.310  52.800  72.896  0.00  0.00    +0.000 A 
ATOM     35  O2  UNL     1      58.745  52.576  71.735  0.00  0.00    +0.000 OA
ENDBRANCH  26  27
ENDBRANCH  24  26
ENDBRANCH   5  24
TORSDOF 5
ENDMDL
MODEL 3
REMARK VINA RESULT:    -8.154      2.334      4.246
REMARK INTER + INTRA:         -11.833
REMARK INTER:                 -10.192
REMARK INTRA:                  -1.640
REMARK UNBOUND:                -1.296
REMARK  Name = CNP0033430_1.pdb
REMARK  5 active torsions:
REMARK  status: ('A' for Active; 'I' for Inactive)
REMARK    1  A    between atoms: C4_5  and  N1_6
REMARK    2  A    between atoms: N1_6  and  C5_7
REMARK    3  A    between atoms: C5_7  and  C6_8
REMARK    4  A    between atoms: N2_22  and  S1_23
REMARK    5  A    between atoms: S1_23  and  C19_26
REMARK                            x       y       z     vdW  Elec       q    Type
REMARK                         _______ _______ _______ _____ _____    ______ ____
ROOT
ATOM      1  O1  UNL     1      55.676  52.198  70.410  0.00  0.00    +0.000 OA
ATOM      2  C1  UNL     1      55.999  52.810  71.466  0.00  0.00    +0.000 A 
ATOM      3  C2  UNL     1      55.679  52.235  72.691  0.00  0.00    +0.000 A 
ATOM      4  C3  UNL     1      56.008  52.887  73.866  0.00  0.00    +0.000 A 
ATOM      5  C4  UNL     1      56.651  54.133  73.837  0.00  0.00    +0.000 A 
ATOM      6  C14 UNL     1      56.948  54.716  72.570  0.00  0.00    +0.000 A 
ATOM      7  C15 UNL     1      57.668  56.070  72.500  0.00  0.00    +0.000 C 
ATOM      8  C16 UNL     1      57.542  56.700  71.125  0.00  0.00    +0.000 C 
ATOM      9  C17 UNL     1      58.029  55.667  70.119  0.00  0.00    +0.000 C 
ATOM     10  C18 UNL     1      59.412  55.045  70.500  0.00  0.00    +0.000 C 
ATOM     11  N2  UNL     1      60.054  55.644  71.690  0.00  0.00    +0.000 NA
ATOM     12  C25 UNL     1      59.172  55.930  72.852  0.00  0.00    +0.000 C 
ATOM     13  C26 UNL     1      56.954  54.572  70.064  0.00  0.00    +0.000 C 
ATOM     14  N3  UNL     1      56.651  54.018  71.406  0.00  0.00    +0.000 N 
ENDROOT
BRANCH  11  15
ATOM     15  S1  UNL     1      61.158  56.942  71.279  0.00  0.00    +0.000 S 
ATOM     16  O3  UNL     1      60.598  58.272  71.702  0.00  0.00    +0.000 OA
ATOM     17  O4  UNL     1      61.414  56.975  69.798  0.00  0.00    +0.000 OA
BRANCH  15  18
ATOM     18  C19 UNL     1      62.672  56.687  72.140  0.00  0.00    +0.000 A 
ATOM     19  C20 UNL     1      63.073  55.396  72.520  0.00  0.00    +0.000 A 
ATOM     20  C21 UNL     1      64.260  55.213  73.233  0.00  0.00    +0.000 A 
ATOM     21  C22 UNL     1      65.051  56.313  73.571  0.00  0.00    +0.000 A 
ATOM     22  C23 UNL     1      64.655  57.600  73.198  0.00  0.00    +0.000 A 
ATOM     23  C24 UNL     1      63.467  57.788  72.486  0.00  0.00    +0.000 A 
ENDBRANCH  15  18
ENDBRANCH  11  15
BRANCH   5  24
ATOM     24  N1  UNL     1      57.017  54.784  75.079  0.00  0.00    +0.000 N 
ATOM     25  H3  UNL     1      57.296  55.790  75.092  0.00  0.00    +0.000 HD
BRANCH  24  26
ATOM     26  C5  UNL     1      57.143  54.085  76.360  0.00  0.00    +0.000 C 
BRANCH  26  27
ATOM     27  C6  UNL     1      58.587  53.847  76.681  0.00  0.00    +0.000 A 
ATOM     28  C7  UNL     1      59.132  53.796  77.962  0.00  0.00    +0.000 A 
ATOM     29  C8  UNL     1      60.470  53.553  77.748  0.00  0.00    +0.000 A 
ATOM     30  C9  UNL     1      61.528  53.414  78.647  0.00  0.00    +0.000 A 
ATOM     31  C10 UNL     1      62.812  53.180  78.118  0.00  0.00    +0.000 A 
ATOM     32  C11 UNL     1      63.004  53.097  76.718  0.00  0.00    +0.000 A 
ATOM     33  C12 UNL     1      61.914  53.243  75.836  0.00  0.00    +0.000 A 
ATOM     34  C13 UNL     1      60.655  53.473  76.391  0.00  0.00    +0.000 A 
ATOM     35  O2  UNL     1      59.519  53.653  75.763  0.00  0.00    +0.000 OA
ENDBRANCH  26  27
ENDBRANCH  24  26
ENDBRANCH   5  24
TORSDOF 5
ENDMDL
MODEL 4
REMARK VINA RESULT:    -7.961      2.439      3.796
REMARK INTER + INTRA:         -11.583
REMARK INTER:                 -10.251
REMARK INTRA:                  -1.332
REMARK UNBOUND:                -1.296
REMARK  Name = CNP0033430_1.pdb
REMARK  5 active torsions:
REMARK  status: ('A' for Active; 'I' for Inactive)
REMARK    1  A    between atoms: C4_5  and  N1_6
REMARK    2  A    between atoms: N1_6  and  C5_7
REMARK    3  A    between atoms: C5_7  and  C6_8
REMARK    4  A    between atoms: N2_22  and  S1_23
REMARK    5  A    between atoms: S1_23  and  C19_26
REMARK                            x       y       z     vdW  Elec       q    Type
REMARK                         _______ _______ _______ _____ _____    ______ ____
ROOT
ATOM      1  O1  UNL     1      58.514  56.004  65.254  0.00  0.00    +0.000 OA
ATOM      2  C1  UNL     1      58.078  55.630  66.378  0.00  0.00    +0.000 A 
ATOM      3  C2  UNL     1      57.424  54.406  66.462  0.00  0.00    +0.000 A 
ATOM      4  C3  UNL     1      56.923  53.974  67.677  0.00  0.00    +0.000 A 
ATOM      5  C4  UNL     1      57.056  54.764  68.828  0.00  0.00    +0.000 A 
ATOM      6  C14 UNL     1      57.709  56.026  68.714  0.00  0.00    +0.000 A 
ATOM      7  C15 UNL     1      57.891  56.910  69.957  0.00  0.00    +0.000 C 
ATOM      8  C16 UNL     1      58.234  58.340  69.582  0.00  0.00    +0.000 C 
ATOM      9  C17 UNL     1      59.446  58.277  68.663  0.00  0.00    +0.000 C 
ATOM     10  C18 UNL     1      60.599  57.387  69.231  0.00  0.00    +0.000 C 
ATOM     11  N2  UNL     1      60.365  56.864  70.594  0.00  0.00    +0.000 NA
ATOM     12  C25 UNL     1      58.999  56.356  70.889  0.00  0.00    +0.000 C 
ATOM     13  C26 UNL     1      58.949  57.710  67.325  0.00  0.00    +0.000 C 
ATOM     14  N3  UNL     1      58.246  56.415  67.493  0.00  0.00    +0.000 N 
ENDROOT
BRANCH  11  15
ATOM     15  S1  UNL     1      61.040  57.898  71.838  0.00  0.00    +0.000 S 
ATOM     16  O3  UNL     1      60.053  58.103  72.954  0.00  0.00    +0.000 OA
ATOM     17  O4  UNL     1      61.412  59.240  71.271  0.00  0.00    +0.000 OA
BRANCH  15  18
ATOM     18  C19 UNL     1      62.468  57.116  72.507  0.00  0.00    +0.000 A 
ATOM     19  C20 UNL     1      63.658  57.836  72.696  0.00  0.00    +0.000 A 
ATOM     20  C21 UNL     1      64.794  57.194  73.197  0.00  0.00    +0.000 A 
ATOM     21  C22 UNL     1      64.748  55.833  73.507  0.00  0.00    +0.000 A 
ATOM     22  C23 UNL     1      63.567  55.111  73.318  0.00  0.00    +0.000 A 
ATOM     23  C24 UNL     1      62.430  55.750  72.816  0.00  0.00    +0.000 A 
ENDBRANCH  15  18
ENDBRANCH  11  15
BRANCH   5  24
ATOM     24  N1  UNL     1      56.555  54.278  70.098  0.00  0.00    +0.000 N 
ATOM     25  H3  UNL     1      55.879  54.844  70.657  0.00  0.00    +0.000 HD
BRANCH  24  26
ATOM     26  C5  UNL     1      57.027  53.052  70.746  0.00  0.00    +0.000 C 
BRANCH  26  27
ATOM     27  C6  UNL     1      58.423  52.737  70.303  0.00  0.00    +0.000 A 
ATOM     28  C7  UNL     1      58.790  51.674  69.481  0.00  0.00    +0.000 A 
ATOM     29  C8  UNL     1      60.155  51.802  69.354  0.00  0.00    +0.000 A 
ATOM     30  C9  UNL     1      61.085  51.023  68.666  0.00  0.00    +0.000 A 
ATOM     31  C10 UNL     1      62.439  51.404  68.736  0.00  0.00    +0.000 A 
ATOM     32  C11 UNL     1      62.824  52.539  69.488  0.00  0.00    +0.000 A 
ATOM     33  C12 UNL     1      61.860  53.305  70.174  0.00  0.00    +0.000 A 
ATOM     34  C13 UNL     1      60.527  52.903  70.085  0.00  0.00    +0.000 A 
ATOM     35  O2  UNL     1      59.480  53.453  70.650  0.00  0.00    +0.000 OA
ENDBRANCH  26  27
ENDBRANCH  24  26
ENDBRANCH   5  24
TORSDOF 5
ENDMDL
MODEL 5
REMARK VINA RESULT:    -7.921      2.559      6.235
REMARK INTER + INTRA:         -11.532
REMARK INTER:                  -9.843
REMARK INTRA:                  -1.689
REMARK UNBOUND:                -1.296
REMARK  Name = CNP0033430_1.pdb
REMARK  5 active torsions:
REMARK  status: ('A' for Active; 'I' for Inactive)
REMARK    1  A    between atoms: C4_5  and  N1_6
REMARK    2  A    between atoms: N1_6  and  C5_7
REMARK    3  A    between atoms: C5_7  and  C6_8
REMARK    4  A    between atoms: N2_22  and  S1_23
REMARK    5  A    between atoms: S1_23  and  C19_26
REMARK                            x       y       z     vdW  Elec       q    Type
REMARK                         _______ _______ _______ _____ _____    ______ ____
ROOT
ATOM      1  O1  UNL     1      58.697  59.228  68.931  0.00  0.00    +0.000 OA
ATOM      2  C1  UNL     1      59.533  58.840  69.793  0.00  0.00    +0.000 A 
ATOM      3  C2  UNL     1      60.515  59.729  70.212  0.00  0.00    +0.000 A 
ATOM      4  C3  UNL     1      61.454  59.329  71.147  0.00  0.00    +0.000 A 
ATOM      5  C4  UNL     1      61.434  58.028  71.670  0.00  0.00    +0.000 A 
ATOM      6  C14 UNL     1      60.432  57.125  71.208  0.00  0.00    +0.000 A 
ATOM      7  C15 UNL     1      60.368  55.699  71.772  0.00  0.00    +0.000 C 
ATOM      8  C16 UNL     1      59.520  54.790  70.900  0.00  0.00    +0.000 C 
ATOM      9  C17 UNL     1      58.170  55.470  70.734  0.00  0.00    +0.000 C 
ATOM     10  C18 UNL     1      57.551  55.944  72.090  0.00  0.00    +0.000 C 
ATOM     11  N2  UNL     1      58.318  55.551  73.291  0.00  0.00    +0.000 NA
ATOM     12  C25 UNL     1      59.797  55.685  73.214  0.00  0.00    +0.000 C 
ATOM     13  C26 UNL     1      58.399  56.672  69.807  0.00  0.00    +0.000 C 
ATOM     14  N3  UNL     1      59.472  57.566  70.306  0.00  0.00    +0.000 N 
ENDROOT
BRANCH  11  15
ATOM     15  S1  UNL     1      57.760  54.040  73.982  0.00  0.00    +0.000 S 
ATOM     16  O3  UNL     1      58.326  52.868  73.227  0.00  0.00    +0.000 OA
ATOM     17  O4  UNL     1      56.260  53.958  73.946  0.00  0.00    +0.000 OA
BRANCH  15  18
ATOM     18  C19 UNL     1      58.323  53.940  75.647  0.00  0.00    +0.000 A 
ATOM     19  C20 UNL     1      59.625  53.505  75.940  0.00  0.00    +0.000 A 
ATOM     20  C21 UNL     1      60.047  53.399  77.268  0.00  0.00    +0.000 A 
ATOM     21  C22 UNL     1      59.173  53.725  78.308  0.00  0.00    +0.000 A 
ATOM     22  C23 UNL     1      57.876  54.156  78.022  0.00  0.00    +0.000 A 
ATOM     23  C24 UNL     1      57.450  54.262  76.694  0.00  0.00    +0.000 A 
ENDBRANCH  15  18
ENDBRANCH  11  15
BRANCH   5  24
ATOM     24  N1  UNL     1      62.405  57.639  72.673  0.00  0.00    +0.000 N 
ATOM     25  H3  UNL     1      62.303  57.949  73.664  0.00  0.00    +0.000 HD
BRANCH  24  26
ATOM     26  C5  UNL     1      63.637  56.905  72.373  0.00  0.00    +0.000 C 
BRANCH  26  27
ATOM     27  C6  UNL     1      63.627  55.573  73.058  0.00  0.00    +0.000 A 
ATOM     28  C7  UNL     1      63.635  54.335  72.420  0.00  0.00    +0.000 A 
ATOM     29  C8  UNL     1      63.627  53.424  73.452  0.00  0.00    +0.000 A 
ATOM     30  C9  UNL     1      63.613  52.029  73.439  0.00  0.00    +0.000 A 
ATOM     31  C10 UNL     1      63.592  51.362  74.678  0.00  0.00    +0.000 A 
ATOM     32  C11 UNL     1      63.579  52.099  75.886  0.00  0.00    +0.000 A 
ATOM     33  C12 UNL     1      63.591  53.508  75.866  0.00  0.00    +0.000 A 
ATOM     34  C13 UNL     1      63.614  54.140  74.623  0.00  0.00    +0.000 A 
ATOM     35  O2  UNL     1      63.612  55.426  74.373  0.00  0.00    +0.000 OA
ENDBRANCH  26  27
ENDBRANCH  24  26
ENDBRANCH   5  24
TORSDOF 5
ENDMDL
MODEL 6
REMARK VINA RESULT:    -7.811      3.380      4.864
REMARK INTER + INTRA:         -11.389
REMARK INTER:                  -9.517
REMARK INTRA:                  -1.873
REMARK UNBOUND:                -1.296
REMARK  Name = CNP0033430_1.pdb
REMARK  5 active torsions:
REMARK  status: ('A' for Active; 'I' for Inactive)
REMARK    1  A    between atoms: C4_5  and  N1_6
REMARK    2  A    between atoms: N1_6  and  C5_7
REMARK    3  A    between atoms: C5_7  and  C6_8
REMARK    4  A    between atoms: N2_22  and  S1_23
REMARK    5  A    between atoms: S1_23  and  C19_26
REMARK                            x       y       z     vdW  Elec       q    Type
REMARK                         _______ _______ _______ _____ _____    ______ ____
ROOT
ATOM      1  O1  UNL     1      57.684  52.907  64.897  0.00  0.00    +0.000 OA
ATOM      2  C1  UNL     1      58.684  53.042  65.655  0.00  0.00    +0.000 A 
ATOM      3  C2  UNL     1      59.843  52.336  65.356  0.00  0.00    +0.000 A 
ATOM      4  C3  UNL     1      60.953  52.453  66.175  0.00  0.00    +0.000 A 
ATOM      5  C4  UNL     1      60.917  53.268  67.315  0.00  0.00    +0.000 A 
ATOM      6  C14 UNL     1      59.710  53.964  67.616  0.00  0.00    +0.000 A 
ATOM      7  C15 UNL     1      59.640  54.881  68.846  0.00  0.00    +0.000 C 
ATOM      8  C16 UNL     1      58.206  55.209  69.219  0.00  0.00    +0.000 C 
ATOM      9  C17 UNL     1      57.541  55.768  67.970  0.00  0.00    +0.000 C 
ATOM     10  C18 UNL     1      58.378  56.894  67.282  0.00  0.00    +0.000 C 
ATOM     11  N2  UNL     1      59.596  57.298  68.016  0.00  0.00    +0.000 NA
ATOM     12  C25 UNL     1      60.412  56.205  68.610  0.00  0.00    +0.000 C 
ATOM     13  C26 UNL     1      57.354  54.585  67.009  0.00  0.00    +0.000 C 
ATOM     14  N3  UNL     1      58.627  53.868  66.751  0.00  0.00    +0.000 N 
ENDROOT
BRANCH  11  15
ATOM     15  S1  UNL     1      59.318  58.659  69.086  0.00  0.00    +0.000 S 
ATOM     16  O3  UNL     1      57.846  58.860  69.321  0.00  0.00    +0.000 OA
ATOM     17  O4  UNL     1      59.890  59.920  68.504  0.00  0.00    +0.000 OA
BRANCH  15  18
ATOM     18  C19 UNL     1      60.078  58.319  70.638  0.00  0.00    +0.000 A 
ATOM     19  C20 UNL     1      61.394  58.734  70.897  0.00  0.00    +0.000 A 
ATOM     20  C21 UNL     1      61.996  58.428  72.121  0.00  0.00    +0.000 A 
ATOM     21  C22 UNL     1      61.290  57.707  73.088  0.00  0.00    +0.000 A 
ATOM     22  C23 UNL     1      59.982  57.291  72.832  0.00  0.00    +0.000 A 
ATOM     23  C24 UNL     1      59.377  57.593  71.609  0.00  0.00    +0.000 A 
ENDBRANCH  15  18
ENDBRANCH  11  15
BRANCH   5  24
ATOM     24  N1  UNL     1      62.100  53.404  68.142  0.00  0.00    +0.000 N 
ATOM     25  H3  UNL     1      62.612  54.312  68.196  0.00  0.00    +0.000 HD
BRANCH  24  26
ATOM     26  C5  UNL     1      62.729  52.289  68.853  0.00  0.00    +0.000 C 
BRANCH  26  27
ATOM     27  C6  UNL     1      62.926  52.639  70.296  0.00  0.00    +0.000 A 
ATOM     28  C7  UNL     1      62.665  53.881  70.869  0.00  0.00    +0.000 A 
ATOM     29  C8  UNL     1      62.990  53.714  72.196  0.00  0.00    +0.000 A 
ATOM     30  C9  UNL     1      62.954  54.611  73.265  0.00  0.00    +0.000 A 
ATOM     31  C10 UNL     1      63.368  54.143  74.527  0.00  0.00    +0.000 A 
ATOM     32  C11 UNL     1      63.807  52.807  74.685  0.00  0.00    +0.000 A 
ATOM     33  C12 UNL     1      63.834  51.926  73.585  0.00  0.00    +0.000 A 
ATOM     34  C13 UNL     1      63.416  52.419  72.349  0.00  0.00    +0.000 A 
ATOM     35  O2  UNL     1      63.375  51.786  71.202  0.00  0.00    +0.000 OA
ENDBRANCH  26  27
ENDBRANCH  24  26
ENDBRANCH   5  24
TORSDOF 5
ENDMDL
MODEL 7
REMARK VINA RESULT:    -7.775      2.673      7.895
REMARK INTER + INTRA:         -11.343
REMARK INTER:                  -9.075
REMARK INTRA:                  -2.268
REMARK UNBOUND:                -1.296
REMARK  Name = CNP0033430_1.pdb
REMARK  5 active torsions:
REMARK  status: ('A' for Active; 'I' for Inactive)
REMARK    1  A    between atoms: C4_5  and  N1_6
REMARK    2  A    between atoms: N1_6  and  C5_7
REMARK    3  A    between atoms: C5_7  and  C6_8
REMARK    4  A    between atoms: N2_22  and  S1_23
REMARK    5  A    between atoms: S1_23  and  C19_26
REMARK                            x       y       z     vdW  Elec       q    Type
REMARK                         _______ _______ _______ _____ _____    ______ ____
ROOT
ATOM      1  O1  UNL     1      63.225  56.464  73.576  0.00  0.00    +0.000 OA
ATOM      2  C1  UNL     1      62.298  56.883  72.829  0.00  0.00    +0.000 A 
ATOM      3  C2  UNL     1      62.535  58.000  72.037  0.00  0.00    +0.000 A 
ATOM      4  C3  UNL     1      61.534  58.490  71.218  0.00  0.00    +0.000 A 
ATOM      5  C4  UNL     1      60.272  57.879  71.186  0.00  0.00    +0.000 A 
ATOM      6  C14 UNL     1      60.043  56.749  72.025  0.00  0.00    +0.000 A 
ATOM      7  C15 UNL     1      58.679  56.043  72.002  0.00  0.00    +0.000 C 
ATOM      8  C16 UNL     1      58.495  55.144  73.211  0.00  0.00    +0.000 C 
ATOM      9  C17 UNL     1      59.695  54.209  73.254  0.00  0.00    +0.000 C 
ATOM     10  C18 UNL     1      59.983  53.517  71.882  0.00  0.00    +0.000 C 
ATOM     11  N2  UNL     1      58.984  53.794  70.827  0.00  0.00    +0.000 NA
ATOM     12  C25 UNL     1      58.501  55.196  70.716  0.00  0.00    +0.000 C 
ATOM     13  C26 UNL     1      60.898  55.065  73.678  0.00  0.00    +0.000 C 
ATOM     14  N3  UNL     1      61.079  56.247  72.801  0.00  0.00    +0.000 N 
ENDROOT
BRANCH  11  15
ATOM     15  S1  UNL     1      57.719  52.583  70.762  0.00  0.00    +0.000 S 
ATOM     16  O3  UNL     1      56.493  53.052  71.496  0.00  0.00    +0.000 OA
ATOM     17  O4  UNL     1      58.184  51.292  71.376  0.00  0.00    +0.000 OA
BRANCH  15  18
ATOM     18  C19 UNL     1      57.279  52.318  69.078  0.00  0.00    +0.000 A 
ATOM     19  C20 UNL     1      56.557  53.288  68.365  0.00  0.00    +0.000 A 
ATOM     20  C21 UNL     1      56.186  53.049  67.038  0.00  0.00    +0.000 A 
ATOM     21  C22 UNL     1      56.531  51.845  66.420  0.00  0.00    +0.000 A 
ATOM     22  C23 UNL     1      57.248  50.877  67.127  0.00  0.00    +0.000 A 
ATOM     23  C24 UNL     1      57.619  51.111  68.454  0.00  0.00    +0.000 A 
ENDBRANCH  15  18
ENDBRANCH  11  15
BRANCH   5  24
ATOM     24  N1  UNL     1      59.247  58.387  70.296  0.00  0.00    +0.000 N 
ATOM     25  H3  UNL     1      58.242  58.375  70.578  0.00  0.00    +0.000 HD
BRANCH  24  26
ATOM     26  C5  UNL     1      59.506  58.834  68.926  0.00  0.00    +0.000 C 
BRANCH  26  27
ATOM     27  C6  UNL     1      59.376  57.686  67.973  0.00  0.00    +0.000 A 
ATOM     28  C7  UNL     1      60.137  56.520  68.003  0.00  0.00    +0.000 A 
ATOM     29  C8  UNL     1      59.654  55.775  66.951  0.00  0.00    +0.000 A 
ATOM     30  C9  UNL     1      60.032  54.522  66.469  0.00  0.00    +0.000 A 
ATOM     31  C10 UNL     1      59.349  54.017  65.346  0.00  0.00    +0.000 A 
ATOM     32  C11 UNL     1      58.319  54.773  64.737  0.00  0.00    +0.000 A 
ATOM     33  C12 UNL     1      57.962  56.038  65.246  0.00  0.00    +0.000 A 
ATOM     34  C13 UNL     1      58.656  56.510  66.360  0.00  0.00    +0.000 A 
ATOM     35  O2  UNL     1      58.501  57.653  66.981  0.00  0.00    +0.000 OA
ENDBRANCH  26  27
ENDBRANCH  24  26
ENDBRANCH   5  24
TORSDOF 5
ENDMDL
MODEL 8
REMARK VINA RESULT:    -7.752      1.259      2.194
REMARK INTER + INTRA:         -11.314
REMARK INTER:                 -10.166
REMARK INTRA:                  -1.148
REMARK UNBOUND:                -1.296
REMARK  Name = CNP0033430_1.pdb
REMARK  5 active torsions:
REMARK  status: ('A' for Active; 'I' for Inactive)
REMARK    1  A    between atoms: C4_5  and  N1_6
REMARK    2  A    between atoms: N1_6  and  C5_7
REMARK    3  A    between atoms: C5_7  and  C6_8
REMARK    4  A    between atoms: N2_22  and  S1_23
REMARK    5  A    between atoms: S1_23  and  C19_26
REMARK                            x       y       z     vdW  Elec       q    Type
REMARK                         _______ _______ _______ _____ _____    ______ ____
ROOT
ATOM      1  O1  UNL     1      56.874  54.103  66.994  0.00  0.00    +0.000 OA
ATOM      2  C1  UNL     1      56.886  53.962  68.248  0.00  0.00    +0.000 A 
ATOM      3  C2  UNL     1      56.466  52.750  68.784  0.00  0.00    +0.000 A 
ATOM      4  C3  UNL     1      56.456  52.569  70.156  0.00  0.00    +0.000 A 
ATOM      5  C4  UNL     1      56.853  53.603  71.017  0.00  0.00    +0.000 A 
ATOM      6  C14 UNL     1      57.256  54.846  70.446  0.00  0.00    +0.000 A 
ATOM      7  C15 UNL     1      57.715  55.993  71.357  0.00  0.00    +0.000 C 
ATOM      8  C16 UNL     1      57.721  57.322  70.623  0.00  0.00    +0.000 C 
ATOM      9  C17 UNL     1      58.560  57.131  69.368  0.00  0.00    +0.000 C 
ATOM     10  C18 UNL     1      59.944  56.462  69.653  0.00  0.00    +0.000 C 
ATOM     11  N2  UNL     1      60.244  56.243  71.084  0.00  0.00    +0.000 NA
ATOM     12  C25 UNL     1      59.132  55.731  71.929  0.00  0.00    +0.000 C 
ATOM     13  C26 UNL     1      57.732  56.251  68.421  0.00  0.00    +0.000 C 
ATOM     14  N3  UNL     1      57.304  54.985  69.065  0.00  0.00    +0.000 N 
ENDROOT
BRANCH  11  15
ATOM     15  S1  UNL     1      61.144  57.568  71.795  0.00  0.00    +0.000 S 
ATOM     16  O3  UNL     1      60.386  58.173  72.944  0.00  0.00    +0.000 OA
ATOM     17  O4  UNL     1      61.410  58.640  70.776  0.00  0.00    +0.000 OA
BRANCH  15  18
ATOM     18  C19 UNL     1      62.669  56.944  72.415  0.00  0.00    +0.000 A 
ATOM     19  C20 UNL     1      62.858  55.565  72.599  0.00  0.00    +0.000 A 
ATOM     20  C21 UNL     1      64.062  55.086  73.124  0.00  0.00    +0.000 A 
ATOM     21  C22 UNL     1      65.079  55.979  73.469  0.00  0.00    +0.000 A 
ATOM     22  C23 UNL     1      64.895  57.352  73.290  0.00  0.00    +0.000 A 
ATOM     23  C24 UNL     1      63.692  57.835  72.767  0.00  0.00    +0.000 A 
ENDBRANCH  15  18
ENDBRANCH  11  15
BRANCH   5  24
ATOM     24  N1  UNL     1      56.867  53.383  72.449  0.00  0.00    +0.000 N 
ATOM     25  H3  UNL     1      57.660  52.878  72.904  0.00  0.00    +0.000 HD
BRANCH  24  26
ATOM     26  C5  UNL     1      55.754  53.728  73.338  0.00  0.00    +0.000 C 
BRANCH  26  27
ATOM     27  C6  UNL     1      56.254  53.954  74.731  0.00  0.00    +0.000 A 
ATOM     28  C7  UNL     1      57.507  53.579  75.211  0.00  0.00    +0.000 A 
ATOM     29  C8  UNL     1      57.504  53.998  76.522  0.00  0.00    +0.000 A 
ATOM     30  C9  UNL     1      58.474  53.887  77.519  0.00  0.00    +0.000 A 
ATOM     31  C10 UNL     1      58.171  54.409  78.791  0.00  0.00    +0.000 A 
ATOM     32  C11 UNL     1      56.915  55.016  79.033  0.00  0.00    +0.000 A 
ATOM     33  C12 UNL     1      55.955  55.111  78.006  0.00  0.00    +0.000 A 
ATOM     34  C13 UNL     1      56.287  54.586  76.756  0.00  0.00    +0.000 A 
ATOM     35  O2  UNL     1      55.547  54.552  75.675  0.00  0.00    +0.000 OA
ENDBRANCH  26  27
ENDBRANCH  24  26
ENDBRANCH   5  24
TORSDOF 5
ENDMDL
MODEL 9
REMARK VINA RESULT:    -7.735      1.527      1.864
REMARK INTER + INTRA:         -11.291
REMARK INTER:                 -10.410
REMARK INTRA:                  -0.881
REMARK UNBOUND:                -1.296
REMARK  Name = CNP0033430_1.pdb
REMARK  5 active torsions:
REMARK  status: ('A' for Active; 'I' for Inactive)
REMARK    1  A    between atoms: C4_5  and  N1_6
REMARK    2  A    between atoms: N1_6  and  C5_7
REMARK    3  A    between atoms: C5_7  and  C6_8
REMARK    4  A    between atoms: N2_22  and  S1_23
REMARK    5  A    between atoms: S1_23  and  C19_26
REMARK                            x       y       z     vdW  Elec       q    Type
REMARK                         _______ _______ _______ _____ _____    ______ ____
ROOT
ATOM      1  O1  UNL     1      58.467  55.838  65.275  0.00  0.00    +0.000 OA
ATOM      2  C1  UNL     1      58.015  55.501  66.405  0.00  0.00    +0.000 A 
ATOM      3  C2  UNL     1      57.319  54.303  66.511  0.00  0.00    +0.000 A 
ATOM      4  C3  UNL     1      56.801  53.912  67.733  0.00  0.00    +0.000 A 
ATOM      5  C4  UNL     1      56.958  54.720  68.868  0.00  0.00    +0.000 A 
ATOM      6  C14 UNL     1      57.654  55.956  68.731  0.00  0.00    +0.000 A 
ATOM      7  C15 UNL     1      57.863  56.857  69.957  0.00  0.00    +0.000 C 
ATOM      8  C16 UNL     1      58.256  58.267  69.555  0.00  0.00    +0.000 C 
ATOM      9  C17 UNL     1      59.467  58.145  68.642  0.00  0.00    +0.000 C 
ATOM     10  C18 UNL     1      60.588  57.227  69.231  0.00  0.00    +0.000 C 
ATOM     11  N2  UNL     1      60.333  56.739  70.603  0.00  0.00    +0.000 NA
ATOM     12  C25 UNL     1      58.949  56.285  70.904  0.00  0.00    +0.000 C 
ATOM     13  C26 UNL     1      58.955  57.569  67.314  0.00  0.00    +0.000 C 
ATOM     14  N3  UNL     1      58.207  56.302  67.505  0.00  0.00    +0.000 N 
ENDROOT
BRANCH  11  15
ATOM     15  S1  UNL     1      61.039  57.775  71.828  0.00  0.00    +0.000 S 
ATOM     16  O3  UNL     1      60.074  57.995  72.961  0.00  0.00    +0.000 OA
ATOM     17  O4  UNL     1      61.414  59.109  71.248  0.00  0.00    +0.000 OA
BRANCH  15  18
ATOM     18  C19 UNL     1      62.472  56.983  72.476  0.00  0.00    +0.000 A 
ATOM     19  C20 UNL     1      63.648  57.711  72.713  0.00  0.00    +0.000 A 
ATOM     20  C21 UNL     1      64.788  57.062  73.196  0.00  0.00    +0.000 A 
ATOM     21  C22 UNL     1      64.760  55.687  73.442  0.00  0.00    +0.000 A 
ATOM     22  C23 UNL     1      63.592  54.959  73.206  0.00  0.00    +0.000 A 
ATOM     23  C24 UNL     1      62.451  55.604  72.721  0.00  0.00    +0.000 A 
ENDBRANCH  15  18
ENDBRANCH  11  15
BRANCH   5  24
ATOM     24  N1  UNL     1      56.437  54.277  70.146  0.00  0.00    +0.000 N 
ATOM     25  H3  UNL     1      55.600  54.736  70.569  0.00  0.00    +0.000 HD
BRANCH  24  26
ATOM     26  C5  UNL     1      57.086  53.266  70.984  0.00  0.00    +0.000 C 
BRANCH  26  27
ATOM     27  C6  UNL     1      56.197  52.896  72.132  0.00  0.00    +0.000 A 
ATOM     28  C7  UNL     1      56.467  53.144  73.476  0.00  0.00    +0.000 A 
ATOM     29  C8  UNL     1      55.372  52.636  74.138  0.00  0.00    +0.000 A 
ATOM     30  C9  UNL     1      55.075  52.576  75.500  0.00  0.00    +0.000 A 
ATOM     31  C10 UNL     1      53.862  51.973  75.881  0.00  0.00    +0.000 A 
ATOM     32  C11 UNL     1      52.987  51.445  74.900  0.00  0.00    +0.000 A 
ATOM     33  C12 UNL     1      53.317  51.519  73.532  0.00  0.00    +0.000 A 
ATOM     34  C13 UNL     1      54.526  52.125  73.187  0.00  0.00    +0.000 A 
ATOM     35  O2  UNL     1      55.032  52.285  71.989  0.00  0.00    +0.000 OA
ENDBRANCH  26  27
ENDBRANCH  24  26
ENDBRANCH   5  24
TORSDOF 5
ENDMDL
MODEL 10
REMARK VINA RESULT:    -7.712      3.320      7.596
REMARK INTER + INTRA:         -11.261
REMARK INTER:                  -8.925
REMARK INTRA:                  -2.337
REMARK UNBOUND:                -1.296
REMARK  Name = CNP0033430_1.pdb
REMARK  5 active torsions:
REMARK  status: ('A' for Active; 'I' for Inactive)
REMARK    1  A    between atoms: C4_5  and  N1_6
REMARK    2  A    between atoms: N1_6  and  C5_7
REMARK    3  A    between atoms: C5_7  and  C6_8
REMARK    4  A    between atoms: N2_22  and  S1_23
REMARK    5  A    between atoms: S1_23  and  C19_26
REMARK                            x       y       z     vdW  Elec       q    Type
REMARK                         _______ _______ _______ _____ _____    ______ ____
ROOT
ATOM      1  O1  UNL     1      64.021  57.809  72.685  0.00  0.00    +0.000 OA
ATOM      2  C1  UNL     1      62.864  57.775  72.182  0.00  0.00    +0.000 A 
ATOM      3  C2  UNL     1      62.317  58.956  71.694  0.00  0.00    +0.000 A 
ATOM      4  C3  UNL     1      61.046  58.954  71.149  0.00  0.00    +0.000 A 
ATOM      5  C4  UNL     1      60.293  57.772  71.093  0.00  0.00    +0.000 A 
ATOM      6  C14 UNL     1      60.864  56.577  71.621  0.00  0.00    +0.000 A 
ATOM      7  C15 UNL     1      60.077  55.260  71.559  0.00  0.00    +0.000 C 
ATOM      8  C16 UNL     1      60.657  54.217  72.498  0.00  0.00    +0.000 C 
ATOM      9  C17 UNL     1      62.135  54.092  72.160  0.00  0.00    +0.000 C 
ATOM     10  C18 UNL     1      62.400  53.907  70.631  0.00  0.00    +0.000 C 
ATOM     11  N2  UNL     1      61.184  53.770  69.802  0.00  0.00    +0.000 NA
ATOM     12  C25 UNL     1      60.052  54.681  70.121  0.00  0.00    +0.000 C 
ATOM     13  C26 UNL     1      62.807  55.377  72.663  0.00  0.00    +0.000 C 
ATOM     14  N3  UNL     1      62.161  56.596  72.119  0.00  0.00    +0.000 N 
ENDROOT
BRANCH  11  15
ATOM     15  S1  UNL     1      60.721  52.097  69.556  0.00  0.00    +0.000 S 
ATOM     16  O3  UNL     1      59.434  51.789  70.270  0.00  0.00    +0.000 OA
ATOM     17  O4  UNL     1      61.788  51.168  70.062  0.00  0.00    +0.000 OA
BRANCH  15  18
ATOM     18  C19 UNL     1      60.468  51.831  67.834  0.00  0.00    +0.000 A 
ATOM     19  C20 UNL     1      59.789  50.691  67.376  0.00  0.00    +0.000 A 
ATOM     20  C21 UNL     1      59.625  50.477  66.005  0.00  0.00    +0.000 A 
ATOM     21  C22 UNL     1      60.138  51.395  65.086  0.00  0.00    +0.000 A 
ATOM     22  C23 UNL     1      60.815  52.530  65.537  0.00  0.00    +0.000 A 
ATOM     23  C24 UNL     1      60.983  52.747  66.908  0.00  0.00    +0.000 A 
ENDBRANCH  15  18
ENDBRANCH  11  15
BRANCH   5  24
ATOM     24  N1  UNL     1      58.976  57.783  70.487  0.00  0.00    +0.000 N 
ATOM     25  H3  UNL     1      58.185  57.259  70.921  0.00  0.00    +0.000 HD
BRANCH  24  26
ATOM     26  C5  UNL     1      58.679  58.407  69.196  0.00  0.00    +0.000 C 
BRANCH  26  27
ATOM     27  C6  UNL     1      58.453  57.357  68.153  0.00  0.00    +0.000 A 
ATOM     28  C7  UNL     1      58.858  57.439  66.822  0.00  0.00    +0.000 A 
ATOM     29  C8  UNL     1      58.439  56.250  66.269  0.00  0.00    +0.000 A 
ATOM     30  C9  UNL     1      58.543  55.762  64.966  0.00  0.00    +0.000 A 
ATOM     31  C10 UNL     1      57.995  54.494  64.695  0.00  0.00    +0.000 A 
ATOM     32  C11 UNL     1      57.359  53.756  65.722  0.00  0.00    +0.000 A 
ATOM     33  C12 UNL     1      57.268  54.278  67.028  0.00  0.00    +0.000 A 
ATOM     34  C13 UNL     1      57.821  55.536  67.265  0.00  0.00    +0.000 A 
ATOM     35  O2  UNL     1      57.835  56.211  68.388  0.00  0.00    +0.000 OA
ENDBRANCH  26  27
ENDBRANCH  24  26
ENDBRANCH   5  24
TORSDOF 5
ENDMDL
