MODEL 1
REMARK VINA RESULT:    -7.587      0.000      0.000
REMARK INTER + INTRA:         -10.889
REMARK INTER:                  -9.804
REMARK INTRA:                  -1.084
REMARK UNBOUND:                -1.084
REMARK  Name = CNP0033430_1.pdb
REMARK  5 active torsions:
REMARK  status: ('A' for Active; 'I' for Inactive)
REMARK    1  A    between atoms: C4_5  and  N1_6
REMARK    2  A    between atoms: N1_6  and  C5_7
REMARK    3  A    between atoms: C5_7  and  C6_8
REMARK    4  A    between atoms: N2_22  and  S1_23
REMARK    5  A    between atoms: S1_23  and  C19_26
REMARK                            x       y       z     vdW  Elec       q    Type
REMARK                         _______ _______ _______ _____ _____    ______ ____
ROOT
ATOM      1  O1  UNL     1      15.883  43.859  30.680  0.00  0.00    +0.000 OA
ATOM      2  C1  UNL     1      16.698  43.558  31.595  0.00  0.00    +0.000 A 
ATOM      3  C2  UNL     1      16.379  42.511  32.450  0.00  0.00    +0.000 A 
ATOM      4  C3  UNL     1      17.247  42.165  33.471  0.00  0.00    +0.000 A 
ATOM      5  C4  UNL     1      18.444  42.870  33.662  0.00  0.00    +0.000 A 
ATOM      6  C14 UNL     1      18.740  43.957  32.788  0.00  0.00    +0.000 A 
ATOM      7  C15 UNL     1      20.050  44.740  32.955  0.00  0.00    +0.000 C 
ATOM      8  C16 UNL     1      20.007  46.067  32.220  0.00  0.00    +0.000 C 
ATOM      9  C17 UNL     1      19.627  45.762  30.778  0.00  0.00    +0.000 C 
ATOM     10  C18 UNL     1      20.488  44.619  30.147  0.00  0.00    +0.000 C 
ATOM     11  N2  UNL     1      21.583  44.121  31.006  0.00  0.00    +0.000 NA
ATOM     12  C25 UNL     1      21.266  43.924  32.445  0.00  0.00    +0.000 C 
ATOM     13  C26 UNL     1      18.145  45.361  30.794  0.00  0.00    +0.000 C 
ATOM     14  N3  UNL     1      17.875  44.252  31.741  0.00  0.00    +0.000 N 
ENDROOT
BRANCH  11  15
ATOM     15  S1  UNL     1      23.103  44.940  30.703  0.00  0.00    +0.000 S 
ATOM     16  O3  UNL     1      22.866  46.309  30.126  0.00  0.00    +0.000 OA
ATOM     17  O4  UNL     1      23.951  44.153  29.744  0.00  0.00    +0.000 OA
BRANCH  15  18
ATOM     18  C19 UNL     1      23.954  45.132  32.232  0.00  0.00    +0.000 A 
ATOM     19  C20 UNL     1      23.873  46.334  32.952  0.00  0.00    +0.000 A 
ATOM     20  C21 UNL     1      24.581  46.483  34.148  0.00  0.00    +0.000 A 
ATOM     21  C22 UNL     1      25.372  45.437  34.629  0.00  0.00    +0.000 A 
ATOM     22  C23 UNL     1      25.457  44.240  33.915  0.00  0.00    +0.000 A 
ATOM     23  C24 UNL     1      24.752  44.087  32.717  0.00  0.00    +0.000 A 
ENDBRANCH  15  18
ENDBRANCH  11  15
BRANCH   5  24
ATOM     24  N1  UNL     1      19.356  42.471  34.716  0.00  0.00    +0.000 N 
ATOM     25  H3  UNL     1      19.508  43.081  35.550  0.00  0.00    +0.000 HD
BRANCH  24  26
ATOM     26  C5  UNL     1      20.206  41.280  34.650  0.00  0.00    +0.000 C 
BRANCH  26  27
ATOM     27  C6  UNL     1      19.976  40.413  35.850  0.00  0.00    +0.000 A 
ATOM     28  C7  UNL     1      19.434  39.130  35.828  0.00  0.00    +0.000 A 
ATOM     29  C8  UNL     1      19.428  38.745  37.149  0.00  0.00    +0.000 A 
ATOM     30  C9  UNL     1      18.987  37.568  37.756  0.00  0.00    +0.000 A 
ATOM     31  C10 UNL     1      19.100  37.470  39.155  0.00  0.00    +0.000 A 
ATOM     32  C11 UNL     1      19.641  38.541  39.906  0.00  0.00    +0.000 A 
ATOM     33  C12 UNL     1      20.076  39.717  39.264  0.00  0.00    +0.000 A 
ATOM     34  C13 UNL     1      19.952  39.784  37.876  0.00  0.00    +0.000 A 
ATOM     35  O2  UNL     1      20.275  40.778  37.086  0.00  0.00    +0.000 OA
ENDBRANCH  26  27
ENDBRANCH  24  26
ENDBRANCH   5  24
TORSDOF 5
ENDMDL
MODEL 2
REMARK VINA RESULT:    -7.383      8.002     12.263
REMARK INTER + INTRA:         -10.625
REMARK INTER:                  -9.297
REMARK INTRA:                  -1.328
REMARK UNBOUND:                -1.084
REMARK  Name = CNP0033430_1.pdb
REMARK  5 active torsions:
REMARK  status: ('A' for Active; 'I' for Inactive)
REMARK    1  A    between atoms: C4_5  and  N1_6
REMARK    2  A    between atoms: N1_6  and  C5_7
REMARK    3  A    between atoms: C5_7  and  C6_8
REMARK    4  A    between atoms: N2_22  and  S1_23
REMARK    5  A    between atoms: S1_23  and  C19_26
REMARK                            x       y       z     vdW  Elec       q    Type
REMARK                         _______ _______ _______ _____ _____    ______ ____
ROOT
ATOM      1  O1  UNL     1      22.807  29.766  40.487  0.00  0.00    +0.000 OA
ATOM      2  C1  UNL     1      23.164  30.946  40.757  0.00  0.00    +0.000 A 
ATOM      3  C2  UNL     1      24.354  31.139  41.447  0.00  0.00    +0.000 A 
ATOM      4  C3  UNL     1      24.766  32.421  41.768  0.00  0.00    +0.000 A 
ATOM      5  C4  UNL     1      23.986  33.531  41.417  0.00  0.00    +0.000 A 
ATOM      6  C14 UNL     1      22.756  33.309  40.731  0.00  0.00    +0.000 A 
ATOM      7  C15 UNL     1      21.885  34.503  40.313  0.00  0.00    +0.000 C 
ATOM      8  C16 UNL     1      20.472  34.070  39.965  0.00  0.00    +0.000 C 
ATOM      9  C17 UNL     1      20.591  32.972  38.919  0.00  0.00    +0.000 C 
ATOM     10  C18 UNL     1      21.536  33.354  37.734  0.00  0.00    +0.000 C 
ATOM     11  N2  UNL     1      22.051  34.739  37.773  0.00  0.00    +0.000 NA
ATOM     12  C25 UNL     1      22.494  35.250  39.098  0.00  0.00    +0.000 C 
ATOM     13  C26 UNL     1      21.130  31.733  39.648  0.00  0.00    +0.000 C 
ATOM     14  N3  UNL     1      22.390  32.017  40.377  0.00  0.00    +0.000 N 
ENDROOT
BRANCH  11  15
ATOM     15  S1  UNL     1      21.053  35.855  36.862  0.00  0.00    +0.000 S 
ATOM     16  O3  UNL     1      19.756  35.207  36.462  0.00  0.00    +0.000 OA
ATOM     17  O4  UNL     1      21.764  36.315  35.621  0.00  0.00    +0.000 OA
BRANCH  15  18
ATOM     18  C19 UNL     1      20.680  37.240  37.883  0.00  0.00    +0.000 A 
ATOM     19  C20 UNL     1      21.463  38.404  37.827  0.00  0.00    +0.000 A 
ATOM     20  C21 UNL     1      21.175  39.483  38.667  0.00  0.00    +0.000 A 
ATOM     21  C22 UNL     1      20.110  39.405  39.568  0.00  0.00    +0.000 A 
ATOM     22  C23 UNL     1      19.330  38.248  39.629  0.00  0.00    +0.000 A 
ATOM     23  C24 UNL     1      19.615  37.166  38.790  0.00  0.00    +0.000 A 
ENDBRANCH  15  18
ENDBRANCH  11  15
BRANCH   5  24
ATOM     24  N1  UNL     1      24.450  34.868  41.733  0.00  0.00    +0.000 N 
ATOM     25  H3  UNL     1      23.876  35.704  41.487  0.00  0.00    +0.000 HD
BRANCH  24  26
ATOM     26  C5  UNL     1      25.771  35.160  42.294  0.00  0.00    +0.000 C 
BRANCH  26  27
ATOM     27  C6  UNL     1      26.655  35.768  41.249  0.00  0.00    +0.000 A 
ATOM     28  C7  UNL     1      27.612  36.755  41.475  0.00  0.00    +0.000 A 
ATOM     29  C8  UNL     1      28.162  36.980  40.233  0.00  0.00    +0.000 A 
ATOM     30  C9  UNL     1      29.156  37.868  39.822  0.00  0.00    +0.000 A 
ATOM     31  C10 UNL     1      29.502  37.880  38.457  0.00  0.00    +0.000 A 
ATOM     32  C11 UNL     1      28.848  37.015  37.547  0.00  0.00    +0.000 A 
ATOM     33  C12 UNL     1      27.845  36.131  37.993  0.00  0.00    +0.000 A 
ATOM     34  C13 UNL     1      27.527  36.143  39.351  0.00  0.00    +0.000 A 
ATOM     35  O2  UNL     1      26.625  35.423  39.973  0.00  0.00    +0.000 OA
ENDBRANCH  26  27
ENDBRANCH  24  26
ENDBRANCH   5  24
TORSDOF 5
ENDMDL
MODEL 3
REMARK VINA RESULT:    -7.345      2.367      8.033
REMARK INTER + INTRA:         -10.576
REMARK INTER:                  -9.645
REMARK INTRA:                  -0.932
REMARK UNBOUND:                -1.084
REMARK  Name = CNP0033430_1.pdb
REMARK  5 active torsions:
REMARK  status: ('A' for Active; 'I' for Inactive)
REMARK    1  A    between atoms: C4_5  and  N1_6
REMARK    2  A    between atoms: N1_6  and  C5_7
REMARK    3  A    between atoms: C5_7  and  C6_8
REMARK    4  A    between atoms: N2_22  and  S1_23
REMARK    5  A    between atoms: S1_23  and  C19_26
REMARK                            x       y       z     vdW  Elec       q    Type
REMARK                         _______ _______ _______ _____ _____    ______ ____
ROOT
ATOM      1  O1  UNL     1      16.793  44.051  31.424  0.00  0.00    +0.000 OA
ATOM      2  C1  UNL     1      17.990  43.859  31.774  0.00  0.00    +0.000 A 
ATOM      3  C2  UNL     1      18.831  44.959  31.898  0.00  0.00    +0.000 A 
ATOM      4  C3  UNL     1      20.152  44.779  32.268  0.00  0.00    +0.000 A 
ATOM      5  C4  UNL     1      20.660  43.494  32.507  0.00  0.00    +0.000 A 
ATOM      6  C14 UNL     1      19.786  42.378  32.351  0.00  0.00    +0.000 A 
ATOM      7  C15 UNL     1      20.302  40.958  32.624  0.00  0.00    +0.000 C 
ATOM      8  C16 UNL     1      19.380  39.905  32.037  0.00  0.00    +0.000 C 
ATOM      9  C17 UNL     1      17.985  40.190  32.574  0.00  0.00    +0.000 C 
ATOM     10  C18 UNL     1      17.954  40.387  34.125  0.00  0.00    +0.000 C 
ATOM     11  N2  UNL     1      19.244  40.149  34.806  0.00  0.00    +0.000 NA
ATOM     12  C25 UNL     1      20.459  40.695  34.144  0.00  0.00    +0.000 C 
ATOM     13  C26 UNL     1      17.498  41.464  31.869  0.00  0.00    +0.000 C 
ATOM     14  N3  UNL     1      18.452  42.589  32.027  0.00  0.00    +0.000 N 
ENDROOT
BRANCH  11  15
ATOM     15  S1  UNL     1      19.409  38.501  35.381  0.00  0.00    +0.000 S 
ATOM     16  O3  UNL     1      20.703  37.898  34.907  0.00  0.00    +0.000 OA
ATOM     17  O4  UNL     1      18.272  37.650  34.893  0.00  0.00    +0.000 OA
BRANCH  15  18
ATOM     18  C19 UNL     1      19.428  38.520  37.142  0.00  0.00    +0.000 A 
ATOM     19  C20 UNL     1      19.949  39.619  37.842  0.00  0.00    +0.000 A 
ATOM     20  C21 UNL     1      19.988  39.605  39.239  0.00  0.00    +0.000 A 
ATOM     21  C22 UNL     1      19.510  38.496  39.942  0.00  0.00    +0.000 A 
ATOM     22  C23 UNL     1      18.993  37.399  39.249  0.00  0.00    +0.000 A 
ATOM     23  C24 UNL     1      18.954  37.409  37.852  0.00  0.00    +0.000 A 
ENDBRANCH  15  18
ENDBRANCH  11  15
BRANCH   5  24
ATOM     24  N1  UNL     1      22.037  43.330  32.926  0.00  0.00    +0.000 N 
ATOM     25  H3  UNL     1      22.274  43.163  33.929  0.00  0.00    +0.000 HD
BRANCH  24  26
ATOM     26  C5  UNL     1      23.186  43.498  32.033  0.00  0.00    +0.000 C 
BRANCH  26  27
ATOM     27  C6  UNL     1      24.025  44.656  32.481  0.00  0.00    +0.000 A 
ATOM     28  C7  UNL     1      24.949  44.630  33.522  0.00  0.00    +0.000 A 
ATOM     29  C8  UNL     1      25.464  45.907  33.547  0.00  0.00    +0.000 A 
ATOM     30  C9  UNL     1      26.416  46.491  34.383  0.00  0.00    +0.000 A 
ATOM     31  C10 UNL     1      26.731  47.847  34.170  0.00  0.00    +0.000 A 
ATOM     32  C11 UNL     1      26.090  48.577  33.141  0.00  0.00    +0.000 A 
ATOM     33  C12 UNL     1      25.130  47.958  32.315  0.00  0.00    +0.000 A 
ATOM     34  C13 UNL     1      24.841  46.614  32.550  0.00  0.00    +0.000 A 
ATOM     35  O2  UNL     1      23.979  45.853  31.919  0.00  0.00    +0.000 OA
ENDBRANCH  26  27
ENDBRANCH  24  26
ENDBRANCH   5  24
TORSDOF 5
ENDMDL
MODEL 4
REMARK VINA RESULT:    -7.250      5.591      8.663
REMARK INTER + INTRA:         -10.454
REMARK INTER:                  -8.864
REMARK INTRA:                  -1.589
REMARK UNBOUND:                -1.084
REMARK  Name = CNP0033430_1.pdb
REMARK  5 active torsions:
REMARK  status: ('A' for Active; 'I' for Inactive)
REMARK    1  A    between atoms: C4_5  and  N1_6
REMARK    2  A    between atoms: N1_6  and  C5_7
REMARK    3  A    between atoms: C5_7  and  C6_8
REMARK    4  A    between atoms: N2_22  and  S1_23
REMARK    5  A    between atoms: S1_23  and  C19_26
REMARK                            x       y       z     vdW  Elec       q    Type
REMARK                         _______ _______ _______ _____ _____    ______ ____
ROOT
ATOM      1  O1  UNL     1      15.578  35.501  32.514  0.00  0.00    +0.000 OA
ATOM      2  C1  UNL     1      16.511  36.332  32.698  0.00  0.00    +0.000 A 
ATOM      3  C2  UNL     1      16.205  37.687  32.686  0.00  0.00    +0.000 A 
ATOM      4  C3  UNL     1      17.208  38.622  32.871  0.00  0.00    +0.000 A 
ATOM      5  C4  UNL     1      18.538  38.218  33.058  0.00  0.00    +0.000 A 
ATOM      6  C14 UNL     1      18.833  36.823  33.043  0.00  0.00    +0.000 A 
ATOM      7  C15 UNL     1      20.274  36.342  33.264  0.00  0.00    +0.000 C 
ATOM      8  C16 UNL     1      20.456  34.900  32.827  0.00  0.00    +0.000 C 
ATOM      9  C17 UNL     1      19.395  34.082  33.548  0.00  0.00    +0.000 C 
ATOM     10  C18 UNL     1      19.343  34.366  35.085  0.00  0.00    +0.000 C 
ATOM     11  N2  UNL     1      20.395  35.277  35.584  0.00  0.00    +0.000 NA
ATOM     12  C25 UNL     1      20.693  36.472  34.751  0.00  0.00    +0.000 C 
ATOM     13  C26 UNL     1      18.052  34.442  32.898  0.00  0.00    +0.000 C 
ATOM     14  N3  UNL     1      17.801  35.903  32.904  0.00  0.00    +0.000 N 
ENDROOT
BRANCH  11  15
ATOM     15  S1  UNL     1      21.813  34.420  36.157  0.00  0.00    +0.000 S 
ATOM     16  O3  UNL     1      23.070  35.078  35.660  0.00  0.00    +0.000 OA
ATOM     17  O4  UNL     1      21.798  32.992  35.688  0.00  0.00    +0.000 OA
BRANCH  15  18
ATOM     18  C19 UNL     1      21.827  34.470  37.917  0.00  0.00    +0.000 A 
ATOM     19  C20 UNL     1      23.039  34.550  38.622  0.00  0.00    +0.000 A 
ATOM     20  C21 UNL     1      23.037  34.555  40.019  0.00  0.00    +0.000 A 
ATOM     21  C22 UNL     1      21.829  34.478  40.718  0.00  0.00    +0.000 A 
ATOM     22  C23 UNL     1      20.622  34.396  40.021  0.00  0.00    +0.000 A 
ATOM     23  C24 UNL     1      20.620  34.389  38.623  0.00  0.00    +0.000 A 
ENDBRANCH  15  18
ENDBRANCH  11  15
BRANCH   5  24
ATOM     24  N1  UNL     1      19.569  39.211  33.284  0.00  0.00    +0.000 N 
ATOM     25  H3  UNL     1      20.533  39.075  32.907  0.00  0.00    +0.000 HD
BRANCH  24  26
ATOM     26  C5  UNL     1      19.391  40.392  34.133  0.00  0.00    +0.000 C 
BRANCH  26  27
ATOM     27  C6  UNL     1      19.481  40.009  35.578  0.00  0.00    +0.000 A 
ATOM     28  C7  UNL     1      19.862  40.855  36.617  0.00  0.00    +0.000 A 
ATOM     29  C8  UNL     1      19.786  40.065  37.741  0.00  0.00    +0.000 A 
ATOM     30  C9  UNL     1      20.064  40.349  39.078  0.00  0.00    +0.000 A 
ATOM     31  C10 UNL     1      19.903  39.312  40.016  0.00  0.00    +0.000 A 
ATOM     32  C11 UNL     1      19.478  38.028  39.597  0.00  0.00    +0.000 A 
ATOM     33  C12 UNL     1      19.208  37.772  38.238  0.00  0.00    +0.000 A 
ATOM     34  C13 UNL     1      19.375  38.821  37.333  0.00  0.00    +0.000 A 
ATOM     35  O2  UNL     1      19.198  38.800  36.035  0.00  0.00    +0.000 OA
ENDBRANCH  26  27
ENDBRANCH  24  26
ENDBRANCH   5  24
TORSDOF 5
ENDMDL
MODEL 5
REMARK VINA RESULT:    -7.176      5.575      8.211
REMARK INTER + INTRA:         -10.357
REMARK INTER:                  -7.996
REMARK INTRA:                  -2.361
REMARK UNBOUND:                -1.084
REMARK  Name = CNP0033430_1.pdb
REMARK  5 active torsions:
REMARK  status: ('A' for Active; 'I' for Inactive)
REMARK    1  A    between atoms: C4_5  and  N1_6
REMARK    2  A    between atoms: N1_6  and  C5_7
REMARK    3  A    between atoms: C5_7  and  C6_8
REMARK    4  A    between atoms: N2_22  and  S1_23
REMARK    5  A    between atoms: S1_23  and  C19_26
REMARK                            x       y       z     vdW  Elec       q    Type
REMARK                         _______ _______ _______ _____ _____    ______ ____
ROOT
ATOM      1  O1  UNL     1      23.753  36.525  30.500  0.00  0.00    +0.000 OA
ATOM      2  C1  UNL     1      23.988  36.607  31.738  0.00  0.00    +0.000 A 
ATOM      3  C2  UNL     1      25.302  36.485  32.174  0.00  0.00    +0.000 A 
ATOM      4  C3  UNL     1      25.590  36.558  33.525  0.00  0.00    +0.000 A 
ATOM      5  C4  UNL     1      24.567  36.740  34.466  0.00  0.00    +0.000 A 
ATOM      6  C14 UNL     1      23.223  36.838  33.999  0.00  0.00    +0.000 A 
ATOM      7  C15 UNL     1      22.079  37.057  34.999  0.00  0.00    +0.000 C 
ATOM      8  C16 UNL     1      20.728  36.743  34.381  0.00  0.00    +0.000 C 
ATOM      9  C17 UNL     1      20.624  37.564  33.104  0.00  0.00    +0.000 C 
ATOM     10  C18 UNL     1      20.984  39.071  33.315  0.00  0.00    +0.000 C 
ATOM     11  N2  UNL     1      21.245  39.456  34.718  0.00  0.00    +0.000 NA
ATOM     12  C25 UNL     1      22.061  38.513  35.529  0.00  0.00    +0.000 C 
ATOM     13  C26 UNL     1      21.589  36.925  32.095  0.00  0.00    +0.000 C 
ATOM     14  N3  UNL     1      22.966  36.810  32.634  0.00  0.00    +0.000 N 
ENDROOT
BRANCH  11  15
ATOM     15  S1  UNL     1      19.812  40.059  35.529  0.00  0.00    +0.000 S 
ATOM     16  O3  UNL     1      18.570  39.672  34.775  0.00  0.00    +0.000 OA
ATOM     17  O4  UNL     1      19.858  41.556  35.648  0.00  0.00    +0.000 OA
BRANCH  15  18
ATOM     18  C19 UNL     1      19.727  39.335  37.132  0.00  0.00    +0.000 A 
ATOM     19  C20 UNL     1      19.121  38.083  37.322  0.00  0.00    +0.000 A 
ATOM     20  C21 UNL     1      19.031  37.536  38.605  0.00  0.00    +0.000 A 
ATOM     21  C22 UNL     1      19.540  38.236  39.702  0.00  0.00    +0.000 A 
ATOM     22  C23 UNL     1      20.141  39.483  39.518  0.00  0.00    +0.000 A 
ATOM     23  C24 UNL     1      20.232  40.034  38.236  0.00  0.00    +0.000 A 
ENDBRANCH  15  18
ENDBRANCH  11  15
BRANCH   5  24
ATOM     24  N1  UNL     1      24.893  36.847  35.874  0.00  0.00    +0.000 N 
ATOM     25  H3  UNL     1      25.034  37.780  36.320  0.00  0.00    +0.000 HD
BRANCH  24  26
ATOM     26  C5  UNL     1      25.163  35.695  36.738  0.00  0.00    +0.000 C 
BRANCH  26  27
ATOM     27  C6  UNL     1      23.901  35.238  37.403  0.00  0.00    +0.000 A 
ATOM     28  C7  UNL     1      23.425  35.691  38.631  0.00  0.00    +0.000 A 
ATOM     29  C8  UNL     1      22.251  34.996  38.814  0.00  0.00    +0.000 A 
ATOM     30  C9  UNL     1      21.336  35.011  39.867  0.00  0.00    +0.000 A 
ATOM     31  C10 UNL     1      20.216  34.163  39.774  0.00  0.00    +0.000 A 
ATOM     32  C11 UNL     1      20.044  33.327  38.645  0.00  0.00    +0.000 A 
ATOM     33  C12 UNL     1      20.988  33.333  37.598  0.00  0.00    +0.000 A 
ATOM     34  C13 UNL     1      22.086  34.185  37.720  0.00  0.00    +0.000 A 
ATOM     35  O2  UNL     1      23.083  34.339  36.882  0.00  0.00    +0.000 OA
ENDBRANCH  26  27
ENDBRANCH  24  26
ENDBRANCH   5  24
TORSDOF 5
ENDMDL
MODEL 6
REMARK VINA RESULT:    -7.169      4.515      7.668
REMARK INTER + INTRA:         -10.349
REMARK INTER:                  -8.825
REMARK INTRA:                  -1.523
REMARK UNBOUND:                -1.084
REMARK  Name = CNP0033430_1.pdb
REMARK  5 active torsions:
REMARK  status: ('A' for Active; 'I' for Inactive)
REMARK    1  A    between atoms: C4_5  and  N1_6
REMARK    2  A    between atoms: N1_6  and  C5_7
REMARK    3  A    between atoms: C5_7  and  C6_8
REMARK    4  A    between atoms: N2_22  and  S1_23
REMARK    5  A    between atoms: S1_23  and  C19_26
REMARK                            x       y       z     vdW  Elec       q    Type
REMARK                         _______ _______ _______ _____ _____    ______ ____
ROOT
ATOM      1  O1  UNL     1      14.874  41.336  32.159  0.00  0.00    +0.000 OA
ATOM      2  C1  UNL     1      16.080  41.110  32.454  0.00  0.00    +0.000 A 
ATOM      3  C2  UNL     1      16.787  42.084  33.149  0.00  0.00    +0.000 A 
ATOM      4  C3  UNL     1      18.115  41.871  33.476  0.00  0.00    +0.000 A 
ATOM      5  C4  UNL     1      18.763  40.686  33.101  0.00  0.00    +0.000 A 
ATOM      6  C14 UNL     1      18.026  39.710  32.368  0.00  0.00    +0.000 A 
ATOM      7  C15 UNL     1      18.697  38.391  31.957  0.00  0.00    +0.000 C 
ATOM      8  C16 UNL     1      17.909  37.676  30.874  0.00  0.00    +0.000 C 
ATOM      9  C17 UNL     1      16.484  37.533  31.386  0.00  0.00    +0.000 C 
ATOM     10  C18 UNL     1      16.408  36.947  32.833  0.00  0.00    +0.000 C 
ATOM     11  N2  UNL     1      17.708  36.529  33.401  0.00  0.00    +0.000 NA
ATOM     12  C25 UNL     1      18.862  37.439  33.169  0.00  0.00    +0.000 C 
ATOM     13  C26 UNL     1      15.865  38.937  31.350  0.00  0.00    +0.000 C 
ATOM     14  N3  UNL     1      16.681  39.927  32.095  0.00  0.00    +0.000 N 
ENDROOT
BRANCH  11  15
ATOM     15  S1  UNL     1      18.052  34.833  33.122  0.00  0.00    +0.000 S 
ATOM     16  O3  UNL     1      18.979  34.664  31.950  0.00  0.00    +0.000 OA
ATOM     17  O4  UNL     1      16.787  34.070  32.851  0.00  0.00    +0.000 OA
BRANCH  15  18
ATOM     18  C19 UNL     1      18.850  34.179  34.549  0.00  0.00    +0.000 A 
ATOM     19  C20 UNL     1      18.637  32.848  34.942  0.00  0.00    +0.000 A 
ATOM     20  C21 UNL     1      19.250  32.353  36.096  0.00  0.00    +0.000 A 
ATOM     21  C22 UNL     1      20.075  33.180  36.861  0.00  0.00    +0.000 A 
ATOM     22  C23 UNL     1      20.289  34.505  36.474  0.00  0.00    +0.000 A 
ATOM     23  C24 UNL     1      19.675  35.005  35.322  0.00  0.00    +0.000 A 
ENDBRANCH  15  18
ENDBRANCH  11  15
BRANCH   5  24
ATOM     24  N1  UNL     1      20.145  40.467  33.481  0.00  0.00    +0.000 N 
ATOM     25  H3  UNL     1      20.722  39.741  33.002  0.00  0.00    +0.000 HD
BRANCH  24  26
ATOM     26  C5  UNL     1      20.794  41.135  34.612  0.00  0.00    +0.000 C 
BRANCH  26  27
ATOM     27  C6  UNL     1      20.446  40.442  35.893  0.00  0.00    +0.000 A 
ATOM     28  C7  UNL     1      20.185  39.081  36.031  0.00  0.00    +0.000 A 
ATOM     29  C8  UNL     1      19.926  38.921  37.373  0.00  0.00    +0.000 A 
ATOM     30  C9  UNL     1      19.584  37.787  38.109  0.00  0.00    +0.000 A 
ATOM     31  C10 UNL     1      19.362  37.943  39.491  0.00  0.00    +0.000 A 
ATOM     32  C11 UNL     1      19.481  39.218  40.093  0.00  0.00    +0.000 A 
ATOM     33  C12 UNL     1      19.825  40.347  39.322  0.00  0.00    +0.000 A 
ATOM     34  C13 UNL     1      20.040  40.158  37.956  0.00  0.00    +0.000 A 
ATOM     35  O2  UNL     1      20.350  41.061  37.058  0.00  0.00    +0.000 OA
ENDBRANCH  26  27
ENDBRANCH  24  26
ENDBRANCH   5  24
TORSDOF 5
ENDMDL
MODEL 7
REMARK VINA RESULT:    -7.102      5.561      8.939
REMARK INTER + INTRA:         -10.263
REMARK INTER:                  -9.270
REMARK INTRA:                  -0.992
REMARK UNBOUND:                -1.084
REMARK  Name = CNP0033430_1.pdb
REMARK  5 active torsions:
REMARK  status: ('A' for Active; 'I' for Inactive)
REMARK    1  A    between atoms: C4_5  and  N1_6
REMARK    2  A    between atoms: N1_6  and  C5_7
REMARK    3  A    between atoms: C5_7  and  C6_8
REMARK    4  A    between atoms: N2_22  and  S1_23
REMARK    5  A    between atoms: S1_23  and  C19_26
REMARK                            x       y       z     vdW  Elec       q    Type
REMARK                         _______ _______ _______ _____ _____    ______ ____
ROOT
ATOM      1  O1  UNL     1      20.070  41.234  38.868  0.00  0.00    +0.000 OA
ATOM      2  C1  UNL     1      20.060  39.983  38.698  0.00  0.00    +0.000 A 
ATOM      3  C2  UNL     1      19.764  39.168  39.784  0.00  0.00    +0.000 A 
ATOM      4  C3  UNL     1      19.758  37.793  39.633  0.00  0.00    +0.000 A 
ATOM      5  C4  UNL     1      20.062  37.208  38.395  0.00  0.00    +0.000 A 
ATOM      6  C14 UNL     1      20.386  38.062  37.301  0.00  0.00    +0.000 A 
ATOM      7  C15 UNL     1      20.705  37.457  35.926  0.00  0.00    +0.000 C 
ATOM      8  C16 UNL     1      21.397  38.460  35.020  0.00  0.00    +0.000 C 
ATOM      9  C17 UNL     1      20.517  39.701  34.982  0.00  0.00    +0.000 C 
ATOM     10  C18 UNL     1      19.016  39.379  34.682  0.00  0.00    +0.000 C 
ATOM     11  N2  UNL     1      18.736  37.960  34.376  0.00  0.00    +0.000 NA
ATOM     12  C25 UNL     1      19.423  36.946  35.220  0.00  0.00    +0.000 C 
ATOM     13  C26 UNL     1      20.650  40.373  36.356  0.00  0.00    +0.000 C 
ATOM     14  N3  UNL     1      20.338  39.440  37.466  0.00  0.00    +0.000 N 
ENDROOT
BRANCH  11  15
ATOM     15  S1  UNL     1      18.777  37.620  32.657  0.00  0.00    +0.000 S 
ATOM     16  O3  UNL     1      20.154  37.193  32.230  0.00  0.00    +0.000 OA
ATOM     17  O4  UNL     1      18.381  38.834  31.864  0.00  0.00    +0.000 OA
BRANCH  15  18
ATOM     18  C19 UNL     1      17.664  36.298  32.318  0.00  0.00    +0.000 A 
ATOM     19  C20 UNL     1      16.305  36.549  32.072  0.00  0.00    +0.000 A 
ATOM     20  C21 UNL     1      15.428  35.487  31.837  0.00  0.00    +0.000 A 
ATOM     21  C22 UNL     1      15.901  34.173  31.850  0.00  0.00    +0.000 A 
ATOM     22  C23 UNL     1      17.252  33.918  32.097  0.00  0.00    +0.000 A 
ATOM     23  C24 UNL     1      18.132  34.978  32.333  0.00  0.00    +0.000 A 
ENDBRANCH  15  18
ENDBRANCH  11  15
BRANCH   5  24
ATOM     24  N1  UNL     1      20.017  35.766  38.248  0.00  0.00    +0.000 N 
ATOM     25  H3  UNL     1      19.795  35.330  37.326  0.00  0.00    +0.000 HD
BRANCH  24  26
ATOM     26  C5  UNL     1      20.154  34.829  39.366  0.00  0.00    +0.000 C 
BRANCH  26  27
ATOM     27  C6  UNL     1      21.573  34.799  39.846  0.00  0.00    +0.000 A 
ATOM     28  C7  UNL     1      21.979  34.533  41.151  0.00  0.00    +0.000 A 
ATOM     29  C8  UNL     1      23.352  34.611  41.099  0.00  0.00    +0.000 A 
ATOM     30  C9  UNL     1      24.315  34.456  42.097  0.00  0.00    +0.000 A 
ATOM     31  C10 UNL     1      25.666  34.611  41.735  0.00  0.00    +0.000 A 
ATOM     32  C11 UNL     1      26.017  34.920  40.399  0.00  0.00    +0.000 A 
ATOM     33  C12 UNL     1      25.021  35.072  39.413  0.00  0.00    +0.000 A 
ATOM     34  C13 UNL     1      23.691  34.911  39.804  0.00  0.00    +0.000 A 
ATOM     35  O2  UNL     1      22.616  35.022  39.063  0.00  0.00    +0.000 OA
ENDBRANCH  26  27
ENDBRANCH  24  26
ENDBRANCH   5  24
TORSDOF 5
ENDMDL
MODEL 8
REMARK VINA RESULT:    -7.083      6.240      8.747
REMARK INTER + INTRA:         -10.238
REMARK INTER:                  -8.804
REMARK INTRA:                  -1.434
REMARK UNBOUND:                -1.084
REMARK  Name = CNP0033430_1.pdb
REMARK  5 active torsions:
REMARK  status: ('A' for Active; 'I' for Inactive)
REMARK    1  A    between atoms: C4_5  and  N1_6
REMARK    2  A    between atoms: N1_6  and  C5_7
REMARK    3  A    between atoms: C5_7  and  C6_8
REMARK    4  A    between atoms: N2_22  and  S1_23
REMARK    5  A    between atoms: S1_23  and  C19_26
REMARK                            x       y       z     vdW  Elec       q    Type
REMARK                         _______ _______ _______ _____ _____    ______ ____
ROOT
ATOM      1  O1  UNL     1      15.484  36.926  30.521  0.00  0.00    +0.000 OA
ATOM      2  C1  UNL     1      16.276  36.124  31.088  0.00  0.00    +0.000 A 
ATOM      3  C2  UNL     1      16.557  34.915  30.461  0.00  0.00    +0.000 A 
ATOM      4  C3  UNL     1      17.413  34.009  31.063  0.00  0.00    +0.000 A 
ATOM      5  C4  UNL     1      17.991  34.289  32.309  0.00  0.00    +0.000 A 
ATOM      6  C14 UNL     1      17.670  35.524  32.945  0.00  0.00    +0.000 A 
ATOM      7  C15 UNL     1      18.300  35.874  34.301  0.00  0.00    +0.000 C 
ATOM      8  C16 UNL     1      17.556  37.005  34.988  0.00  0.00    +0.000 C 
ATOM      9  C17 UNL     1      17.493  38.159  33.999  0.00  0.00    +0.000 C 
ATOM     10  C18 UNL     1      18.881  38.496  33.362  0.00  0.00    +0.000 C 
ATOM     11  N2  UNL     1      20.018  37.726  33.909  0.00  0.00    +0.000 NA
ATOM     12  C25 UNL     1      19.790  36.275  34.146  0.00  0.00    +0.000 C 
ATOM     13  C26 UNL     1      16.497  37.743  32.908  0.00  0.00    +0.000 C 
ATOM     14  N3  UNL     1      16.848  36.438  32.297  0.00  0.00    +0.000 N 
ENDROOT
BRANCH  11  15
ATOM     15  S1  UNL     1      20.825  38.558  35.224  0.00  0.00    +0.000 S 
ATOM     16  O3  UNL     1      20.336  39.976  35.337  0.00  0.00    +0.000 OA
ATOM     17  O4  UNL     1      22.313  38.576  35.009  0.00  0.00    +0.000 OA
BRANCH  15  18
ATOM     18  C19 UNL     1      20.450  37.728  36.730  0.00  0.00    +0.000 A 
ATOM     19  C20 UNL     1      21.176  36.592  37.123  0.00  0.00    +0.000 A 
ATOM     20  C21 UNL     1      20.845  35.924  38.305  0.00  0.00    +0.000 A 
ATOM     21  C22 UNL     1      19.790  36.383  39.097  0.00  0.00    +0.000 A 
ATOM     22  C23 UNL     1      19.064  37.511  38.709  0.00  0.00    +0.000 A 
ATOM     23  C24 UNL     1      19.391  38.181  37.527  0.00  0.00    +0.000 A 
ENDBRANCH  15  18
ENDBRANCH  11  15
BRANCH   5  24
ATOM     24  N1  UNL     1      18.910  33.342  32.907  0.00  0.00    +0.000 N 
ATOM     25  H3  UNL     1      19.883  33.627  33.157  0.00  0.00    +0.000 HD
BRANCH  24  26
ATOM     26  C5  UNL     1      18.608  31.921  33.095  0.00  0.00    +0.000 C 
BRANCH  26  27
ATOM     27  C6  UNL     1      18.168  31.667  34.504  0.00  0.00    +0.000 A 
ATOM     28  C7  UNL     1      16.892  31.265  34.892  0.00  0.00    +0.000 A 
ATOM     29  C8  UNL     1      16.975  31.158  36.262  0.00  0.00    +0.000 A 
ATOM     30  C9  UNL     1      16.014  30.810  37.211  0.00  0.00    +0.000 A 
ATOM     31  C10 UNL     1      16.401  30.803  38.565  0.00  0.00    +0.000 A 
ATOM     32  C11 UNL     1      17.724  31.145  38.931  0.00  0.00    +0.000 A 
ATOM     33  C12 UNL     1      18.672  31.494  37.949  0.00  0.00    +0.000 A 
ATOM     34  C13 UNL     1      18.258  31.491  36.617  0.00  0.00    +0.000 A 
ATOM     35  O2  UNL     1      18.962  31.795  35.554  0.00  0.00    +0.000 OA
ENDBRANCH  26  27
ENDBRANCH  24  26
ENDBRANCH   5  24
TORSDOF 5
ENDMDL
MODEL 9
REMARK VINA RESULT:    -7.024      3.376      8.509
REMARK INTER + INTRA:         -10.161
REMARK INTER:                  -9.034
REMARK INTRA:                  -1.127
REMARK UNBOUND:                -1.084
REMARK  Name = CNP0033430_1.pdb
REMARK  5 active torsions:
REMARK  status: ('A' for Active; 'I' for Inactive)
REMARK    1  A    between atoms: C4_5  and  N1_6
REMARK    2  A    between atoms: N1_6  and  C5_7
REMARK    3  A    between atoms: C5_7  and  C6_8
REMARK    4  A    between atoms: N2_22  and  S1_23
REMARK    5  A    between atoms: S1_23  and  C19_26
REMARK                            x       y       z     vdW  Elec       q    Type
REMARK                         _______ _______ _______ _____ _____    ______ ____
ROOT
ATOM      1  O1  UNL     1      16.066  36.465  33.329  0.00  0.00    +0.000 OA
ATOM      2  C1  UNL     1      16.613  37.597  33.443  0.00  0.00    +0.000 A 
ATOM      3  C2  UNL     1      16.002  38.693  32.846  0.00  0.00    +0.000 A 
ATOM      4  C3  UNL     1      16.584  39.944  32.943  0.00  0.00    +0.000 A 
ATOM      5  C4  UNL     1      17.795  40.120  33.627  0.00  0.00    +0.000 A 
ATOM      6  C14 UNL     1      18.416  38.977  34.212  0.00  0.00    +0.000 A 
ATOM      7  C15 UNL     1      19.733  39.134  34.987  0.00  0.00    +0.000 C 
ATOM      8  C16 UNL     1      20.428  37.800  35.184  0.00  0.00    +0.000 C 
ATOM      9  C17 UNL     1      19.417  36.865  35.831  0.00  0.00    +0.000 C 
ATOM     10  C18 UNL     1      18.708  37.496  37.074  0.00  0.00    +0.000 C 
ATOM     11  N2  UNL     1      19.219  38.825  37.471  0.00  0.00    +0.000 NA
ATOM     12  C25 UNL     1      19.501  39.788  36.373  0.00  0.00    +0.000 C 
ATOM     13  C26 UNL     1      18.383  36.525  34.748  0.00  0.00    +0.000 C 
ATOM     14  N3  UNL     1      17.787  37.741  34.142  0.00  0.00    +0.000 N 
ENDROOT
BRANCH  11  15
ATOM     15  S1  UNL     1      20.476  38.728  38.690  0.00  0.00    +0.000 S 
ATOM     16  O3  UNL     1      19.940  39.119  40.040  0.00  0.00    +0.000 OA
ATOM     17  O4  UNL     1      21.624  39.633  38.345  0.00  0.00    +0.000 OA
BRANCH  15  18
ATOM     18  C19 UNL     1      21.038  37.062  38.787  0.00  0.00    +0.000 A 
ATOM     19  C20 UNL     1      20.340  36.113  39.550  0.00  0.00    +0.000 A 
ATOM     20  C21 UNL     1      20.817  34.803  39.645  0.00  0.00    +0.000 A 
ATOM     21  C22 UNL     1      21.990  34.435  38.981  0.00  0.00    +0.000 A 
ATOM     22  C23 UNL     1      22.688  35.376  38.222  0.00  0.00    +0.000 A 
ATOM     23  C24 UNL     1      22.215  36.688  38.127  0.00  0.00    +0.000 A 
ENDBRANCH  15  18
ENDBRANCH  11  15
BRANCH   5  24
ATOM     24  N1  UNL     1      18.371  41.444  33.746  0.00  0.00    +0.000 N 
ATOM     25  H3  UNL     1      18.570  41.857  34.684  0.00  0.00    +0.000 HD
BRANCH  24  26
ATOM     26  C5  UNL     1      18.604  42.336  32.608  0.00  0.00    +0.000 C 
BRANCH  26  27
ATOM     27  C6  UNL     1      20.054  42.701  32.524  0.00  0.00    +0.000 A 
ATOM     28  C7  UNL     1      21.120  41.830  32.738  0.00  0.00    +0.000 A 
ATOM     29  C8  UNL     1      22.237  42.612  32.545  0.00  0.00    +0.000 A 
ATOM     30  C9  UNL     1      23.595  42.304  32.637  0.00  0.00    +0.000 A 
ATOM     31  C10 UNL     1      24.519  43.337  32.392  0.00  0.00    +0.000 A 
ATOM     32  C11 UNL     1      24.068  44.639  32.070  0.00  0.00    +0.000 A 
ATOM     33  C12 UNL     1      22.689  44.919  31.986  0.00  0.00    +0.000 A 
ATOM     34  C13 UNL     1      21.798  43.874  32.233  0.00  0.00    +0.000 A 
ATOM     35  O2  UNL     1      20.488  43.914  32.226  0.00  0.00    +0.000 OA
ENDBRANCH  26  27
ENDBRANCH  24  26
ENDBRANCH   5  24
TORSDOF 5
ENDMDL
MODEL 10
REMARK VINA RESULT:    -7.007      2.326      7.508
REMARK INTER + INTRA:         -10.139
REMARK INTER:                  -9.286
REMARK INTRA:                  -0.853
REMARK UNBOUND:                -1.084
REMARK  Name = CNP0033430_1.pdb
REMARK  5 active torsions:
REMARK  status: ('A' for Active; 'I' for Inactive)
REMARK    1  A    between atoms: C4_5  and  N1_6
REMARK    2  A    between atoms: N1_6  and  C5_7
REMARK    3  A    between atoms: C5_7  and  C6_8
REMARK    4  A    between atoms: N2_22  and  S1_23
REMARK    5  A    between atoms: S1_23  and  C19_26
REMARK                            x       y       z     vdW  Elec       q    Type
REMARK                         _______ _______ _______ _____ _____    ______ ____
ROOT
ATOM      1  O1  UNL     1      15.682  42.149  30.981  0.00  0.00    +0.000 OA
ATOM      2  C1  UNL     1      16.715  42.681  31.475  0.00  0.00    +0.000 A 
ATOM      3  C2  UNL     1      16.749  44.064  31.611  0.00  0.00    +0.000 A 
ATOM      4  C3  UNL     1      17.872  44.677  32.137  0.00  0.00    +0.000 A 
ATOM      5  C4  UNL     1      18.986  43.920  32.524  0.00  0.00    +0.000 A 
ATOM      6  C14 UNL     1      18.939  42.505  32.354  0.00  0.00    +0.000 A 
ATOM      7  C15 UNL     1      20.133  41.641  32.785  0.00  0.00    +0.000 C 
ATOM      8  C16 UNL     1      20.066  40.252  32.177  0.00  0.00    +0.000 C 
ATOM      9  C17 UNL     1      18.703  39.677  32.534  0.00  0.00    +0.000 C 
ATOM     10  C18 UNL     1      18.360  39.813  34.054  0.00  0.00    +0.000 C 
ATOM     11  N2  UNL     1      19.450  40.360  34.889  0.00  0.00    +0.000 NA
ATOM     12  C25 UNL     1      20.209  41.510  34.328  0.00  0.00    +0.000 C 
ATOM     13  C26 UNL     1      17.674  40.441  31.689  0.00  0.00    +0.000 C 
ATOM     14  N3  UNL     1      17.781  41.909  31.869  0.00  0.00    +0.000 N 
ENDROOT
BRANCH  11  15
ATOM     15  S1  UNL     1      20.450  39.107  35.598  0.00  0.00    +0.000 S 
ATOM     16  O3  UNL     1      21.907  39.464  35.493  0.00  0.00    +0.000 OA
ATOM     17  O4  UNL     1      20.226  37.791  34.907  0.00  0.00    +0.000 OA
BRANCH  15  18
ATOM     18  C19 UNL     1      20.044  38.961  37.305  0.00  0.00    +0.000 A 
ATOM     19  C20 UNL     1      20.432  39.951  38.221  0.00  0.00    +0.000 A 
ATOM     20  C21 UNL     1      20.131  39.806  39.578  0.00  0.00    +0.000 A 
ATOM     21  C22 UNL     1      19.447  38.673  40.026  0.00  0.00    +0.000 A 
ATOM     22  C23 UNL     1      19.062  37.684  39.119  0.00  0.00    +0.000 A 
ATOM     23  C24 UNL     1      19.362  37.826  37.760  0.00  0.00    +0.000 A 
ENDBRANCH  15  18
ENDBRANCH  11  15
BRANCH   5  24
ATOM     24  N1  UNL     1      20.140  44.578  33.105  0.00  0.00    +0.000 N 
ATOM     25  H3  UNL     1      20.687  44.121  33.867  0.00  0.00    +0.000 HD
BRANCH  24  26
ATOM     26  C5  UNL     1      20.553  45.943  32.770  0.00  0.00    +0.000 C 
BRANCH  26  27
ATOM     27  C6  UNL     1      21.983  46.161  33.156  0.00  0.00    +0.000 A 
ATOM     28  C7  UNL     1      23.058  45.368  32.758  0.00  0.00    +0.000 A 
ATOM     29  C8  UNL     1      24.150  45.961  33.350  0.00  0.00    +0.000 A 
ATOM     30  C9  UNL     1      25.501  45.611  33.332  0.00  0.00    +0.000 A 
ATOM     31  C10 UNL     1      26.397  46.417  34.059  0.00  0.00    +0.000 A 
ATOM     32  C11 UNL     1      25.924  47.537  34.783  0.00  0.00    +0.000 A 
ATOM     33  C12 UNL     1      24.553  47.863  34.784  0.00  0.00    +0.000 A 
ATOM     34  C13 UNL     1      23.691  47.046  34.053  0.00  0.00    +0.000 A 
ATOM     35  O2  UNL     1      22.390  47.154  33.929  0.00  0.00    +0.000 OA
ENDBRANCH  26  27
ENDBRANCH  24  26
ENDBRANCH   5  24
TORSDOF 5
ENDMDL
